 Entering Gaussian System, Link 0=/opt/apps/gaussian/16-C.01-1/libexec/avx2/g16/g16
 Initial command:
 /opt/apps/gaussian/16-C.01-1/libexec/avx2/g16/l1.exe "/tmp/3180234.sched5.carboncluster/Gau-59566.inp" -scrdir="/tmp/3180234.sched5.carboncluster/"
 Default is to use a total of  16 processors:
                               16 via shared-memory
                                1 via Linda
 Entering Link 1 = /opt/apps/gaussian/16-C.01-1/libexec/avx2/g16/l1.exe PID=     59575.
  
 Copyright (c) 1988-2019, Gaussian, Inc.  All Rights Reserved.
  
 This is part of the Gaussian(R) 16 program.  It is based on
 the Gaussian(R) 09 system (copyright 2009, Gaussian, Inc.),
 the Gaussian(R) 03 system (copyright 2003, Gaussian, Inc.),
 the Gaussian(R) 98 system (copyright 1998, Gaussian, Inc.),
 the Gaussian(R) 94 system (copyright 1995, Gaussian, Inc.),
 the Gaussian 92(TM) system (copyright 1992, Gaussian, Inc.),
 the Gaussian 90(TM) system (copyright 1990, Gaussian, Inc.),
 the Gaussian 88(TM) system (copyright 1988, Gaussian, Inc.),
 the Gaussian 86(TM) system (copyright 1986, Carnegie Mellon
 University), and the Gaussian 82(TM) system (copyright 1983,
 Carnegie Mellon University). Gaussian is a federally registered
 trademark of Gaussian, Inc.
  
 This software contains proprietary and confidential information,
 including trade secrets, belonging to Gaussian, Inc.
  
 This software is provided under written license and may be
 used, copied, transmitted, or stored only in accord with that
 written license.
  
 The following legend is applicable only to US Government
 contracts under FAR:
  
                    RESTRICTED RIGHTS LEGEND
  
 Use, reproduction and disclosure by the US Government is
 subject to restrictions as set forth in subparagraphs (a)
 and (c) of the Commercial Computer Software - Restricted
 Rights clause in FAR 52.227-19.
  
 Gaussian, Inc.
 340 Quinnipiac St., Bldg. 40, Wallingford CT 06492
  
  
 ---------------------------------------------------------------
 Warning -- This program may not be used in any manner that
 competes with the business of Gaussian, Inc. or will provide
 assistance to any competitor of Gaussian, Inc.  The licensee
 of this program is prohibited from giving any competitor of
 Gaussian, Inc. access to this program.  By using this program,
 the user acknowledges that Gaussian, Inc. is engaged in the
 business of creating and licensing software in the field of
 computational chemistry and represents and warrants to the
 licensee that it is not a competitor of Gaussian, Inc. and that
 it will not use this program in any manner prohibited above.
 ---------------------------------------------------------------
  

 Cite this work as:
 Gaussian 16, Revision C.01,
 M. J. Frisch, G. W. Trucks, H. B. Schlegel, G. E. Scuseria, 
 M. A. Robb, J. R. Cheeseman, G. Scalmani, V. Barone, 
 G. A. Petersson, H. Nakatsuji, X. Li, M. Caricato, A. V. Marenich, 
 J. Bloino, B. G. Janesko, R. Gomperts, B. Mennucci, H. P. Hratchian, 
 J. V. Ortiz, A. F. Izmaylov, J. L. Sonnenberg, D. Williams-Young, 
 F. Ding, F. Lipparini, F. Egidi, J. Goings, B. Peng, A. Petrone, 
 T. Henderson, D. Ranasinghe, V. G. Zakrzewski, J. Gao, N. Rega, 
 G. Zheng, W. Liang, M. Hada, M. Ehara, K. Toyota, R. Fukuda, 
 J. Hasegawa, M. Ishida, T. Nakajima, Y. Honda, O. Kitao, H. Nakai, 
 T. Vreven, K. Throssell, J. A. Montgomery, Jr., J. E. Peralta, 
 F. Ogliaro, M. J. Bearpark, J. J. Heyd, E. N. Brothers, K. N. Kudin, 
 V. N. Staroverov, T. A. Keith, R. Kobayashi, J. Normand, 
 K. Raghavachari, A. P. Rendell, J. C. Burant, S. S. Iyengar, 
 J. Tomasi, M. Cossi, J. M. Millam, M. Klene, C. Adamo, R. Cammi, 
 J. W. Ochterski, R. L. Martin, K. Morokuma, O. Farkas, 
 J. B. Foresman, and D. J. Fox, Gaussian, Inc., Wallingford CT, 2019.
 
 ******************************************
 Gaussian 16:  ES64L-G16RevC.01  3-Jul-2019
                26-Feb-2025 
 ******************************************
 --------------------------------------------------------
 #p freq polar wb97xd/6-31+g(d,p) pop=NBO density=current
 --------------------------------------------------------
 1/10=4,30=1,38=1/1,3;
 2/12=2,17=6,18=5,40=1/2;
 3/5=1,6=6,7=111,11=2,25=1,30=1,71=2,74=-58,140=1/1,2,3;
 4//1;
 5/5=2,38=5,98=1/2;
 8/6=4,10=90,11=11/1;
 11/6=1,8=1,9=11,15=111,16=1/1,2,10;
 10/6=1/2;
 6/7=2,8=2,9=2,10=2,22=-1,28=1,40=1/1,7;
 7/8=1,10=1,25=1/1,2,3,16;
 1/10=4,30=1/3;
 99//99;
 Leave Link    1 at Wed Feb 26 10:22:33 2025, MaxMem=           0 cpu:               1.0 elap:               0.1
 (Enter /opt/apps/gaussian/16-C.01-1/libexec/avx2/g16/l101.exe)
 -------------------------------------------------
 42_CID_6535_Triethyl_phosphate_superfine_back.com
 -------------------------------------------------
 Symbolic Z-matrix:
 Charge =  0 Multiplicity = 1
 P                    -0.00007   0.00005   0.32846 
 O                     1.04649   0.983    -0.36776 
 O                    -1.37469   0.41486  -0.36763 
 O                     0.32796  -1.39789  -0.36753 
 O                    -0.00002   0.00016   1.80768 
 C                     1.18035   2.33193   0.1223 
 C                    -2.60977  -0.14373   0.12255 
 C                     1.42924  -2.18817   0.12273 
 C                     2.39418   2.94764  -0.53847 
 C                    -3.75      0.59908  -0.53867 
 C                     1.35631  -3.54695  -0.53871 
 H                     0.26896   2.88397  -0.1319 
 H                     1.28493   2.30436   1.21128 
 H                    -2.63192  -1.20916  -0.13119 
 H                    -2.6383   -0.03891   1.21148 
 H                     2.36301  -1.67451  -0.13074 
 H                     1.35252  -2.26546   1.21164 
 H                     2.51619   3.97972  -0.19652 
 H                     3.29755   2.38795  -0.28233 
 H                     2.28198   2.95184  -1.62573 
 H                    -4.70474   0.18867  -0.19657 
 H                    -3.7172    1.66139  -0.28303 
 H                    -3.69743   0.4993   -1.62588 
 H                     2.18907  -4.16857  -0.1965 
 H                     0.4199   -4.04981  -0.28339 
 H                     1.4167   -3.45136  -1.62589 
 
 ITRead=  0  0  0  0  0  0  0  0  0  0  0  0  0  0  0  0  0  0  0  0
 ITRead=  0  0  0  0  0  0
 MicOpt= -1 -1 -1 -1 -1 -1 -1 -1 -1 -1 -1 -1 -1 -1 -1 -1 -1 -1 -1 -1
 MicOpt= -1 -1 -1 -1 -1 -1
 NAtoms=     26 NQM=       26 NQMF=       0 NMMI=      0 NMMIF=      0
                NMic=       0 NMicF=      0.
                    Isotopes and Nuclear Properties:
 (Nuclear quadrupole moments (NQMom) in fm**2, nuclear magnetic moments (NMagM)
  in nuclear magnetons)

  Atom         1           2           3           4           5           6           7           8           9          10
 IAtWgt=          31          16          16          16          16          12          12          12          12          12
 AtmWgt=  30.9737634  15.9949146  15.9949146  15.9949146  15.9949146  12.0000000  12.0000000  12.0000000  12.0000000  12.0000000
 NucSpn=           1           0           0           0           0           0           0           0           0           0
 AtZEff=  -0.0000000  -0.0000000  -0.0000000  -0.0000000  -0.0000000  -0.0000000  -0.0000000  -0.0000000  -0.0000000  -0.0000000
 NQMom=    0.0000000   0.0000000   0.0000000   0.0000000   0.0000000   0.0000000   0.0000000   0.0000000   0.0000000   0.0000000
 NMagM=    1.1316000   0.0000000   0.0000000   0.0000000   0.0000000   0.0000000   0.0000000   0.0000000   0.0000000   0.0000000
 AtZNuc=  15.0000000   8.0000000   8.0000000   8.0000000   8.0000000   6.0000000   6.0000000   6.0000000   6.0000000   6.0000000

  Atom        11          12          13          14          15          16          17          18          19          20
 IAtWgt=          12           1           1           1           1           1           1           1           1           1
 AtmWgt=  12.0000000   1.0078250   1.0078250   1.0078250   1.0078250   1.0078250   1.0078250   1.0078250   1.0078250   1.0078250
 NucSpn=           0           1           1           1           1           1           1           1           1           1
 AtZEff=  -0.0000000  -0.0000000  -0.0000000  -0.0000000  -0.0000000  -0.0000000  -0.0000000  -0.0000000  -0.0000000  -0.0000000
 NQMom=    0.0000000   0.0000000   0.0000000   0.0000000   0.0000000   0.0000000   0.0000000   0.0000000   0.0000000   0.0000000
 NMagM=    0.0000000   2.7928460   2.7928460   2.7928460   2.7928460   2.7928460   2.7928460   2.7928460   2.7928460   2.7928460
 AtZNuc=   6.0000000   1.0000000   1.0000000   1.0000000   1.0000000   1.0000000   1.0000000   1.0000000   1.0000000   1.0000000

  Atom        21          22          23          24          25          26
 IAtWgt=           1           1           1           1           1           1
 AtmWgt=   1.0078250   1.0078250   1.0078250   1.0078250   1.0078250   1.0078250
 NucSpn=           1           1           1           1           1           1
 AtZEff=  -0.0000000  -0.0000000  -0.0000000  -0.0000000  -0.0000000  -0.0000000
 NQMom=    0.0000000   0.0000000   0.0000000   0.0000000   0.0000000   0.0000000
 NMagM=    2.7928460   2.7928460   2.7928460   2.7928460   2.7928460   2.7928460
 AtZNuc=   1.0000000   1.0000000   1.0000000   1.0000000   1.0000000   1.0000000
 Leave Link  101 at Wed Feb 26 10:22:34 2025, MaxMem=   104857600 cpu:               1.8 elap:               0.1
 (Enter /opt/apps/gaussian/16-C.01-1/libexec/avx2/g16/l103.exe)

 GradGradGradGradGradGradGradGradGradGradGradGradGradGradGradGradGradGrad
 Berny optimization.
 Initialization pass.
 Trust Radius=3.00D-01 FncErr=1.00D-07 GrdErr=1.00D-07 EigMax=2.50D+02 EigMin=1.00D-04
 Number of steps in this run=      2 maximum allowed number of steps=      2.
 GradGradGradGradGradGradGradGradGradGradGradGradGradGradGradGradGradGrad

 Leave Link  103 at Wed Feb 26 10:22:34 2025, MaxMem=   104857600 cpu:               0.5 elap:               0.1
 (Enter /opt/apps/gaussian/16-C.01-1/libexec/avx2/g16/l202.exe)
                          Input orientation:                          
 ---------------------------------------------------------------------
 Center     Atomic      Atomic             Coordinates (Angstroms)
 Number     Number       Type             X           Y           Z
 ---------------------------------------------------------------------
      1         15           0       -0.000070    0.000045    0.328455
      2          8           0        1.046488    0.983002   -0.367763
      3          8           0       -1.374691    0.414857   -0.367630
      4          8           0        0.327964   -1.397892   -0.367527
      5          8           0       -0.000023    0.000158    1.807679
      6          6           0        1.180350    2.331934    0.122299
      7          6           0       -2.609765   -0.143734    0.122546
      8          6           0        1.429238   -2.188165    0.122728
      9          6           0        2.394184    2.947644   -0.538472
     10          6           0       -3.749997    0.599082   -0.538665
     11          6           0        1.356312   -3.546945   -0.538710
     12          1           0        0.268955    2.883974   -0.131904
     13          1           0        1.284928    2.304356    1.211284
     14          1           0       -2.631916   -1.209162   -0.131187
     15          1           0       -2.638300   -0.038910    1.211483
     16          1           0        2.363006   -1.674505   -0.130735
     17          1           0        1.352524   -2.265459    1.211639
     18          1           0        2.516189    3.979720   -0.196515
     19          1           0        3.297547    2.387953   -0.282330
     20          1           0        2.281982    2.951835   -1.625734
     21          1           0       -4.704743    0.188674   -0.196572
     22          1           0       -3.717201    1.661392   -0.283033
     23          1           0       -3.697428    0.499304   -1.625875
     24          1           0        2.189066   -4.168568   -0.196499
     25          1           0        0.419900   -4.049808   -0.283387
     26          1           0        1.416703   -3.451363   -1.625891
 ---------------------------------------------------------------------
                    Distance matrix (angstroms):
                    1          2          3          4          5
     1  P    0.000000
     2  O    1.595684   0.000000
     3  O    1.595677   2.486945   0.000000
     4  O    1.595690   2.486953   2.486985   0.000000
     5  O    1.479224   2.606476   2.606464   2.606461   0.000000
     6  C    2.621755   1.441422   3.231633   3.857213   3.109818
     7  C    2.621751   3.857217   1.441424   3.231615   3.109844
     8  C    2.621738   3.231622   3.857226   1.441418   3.109760
     9  C    3.895171   2.388565   4.544075   4.814787   4.463667
    10  C    3.895214   4.814859   2.388571   4.543893   4.463893
    11  C    3.895239   4.543747   4.814927   2.388563   4.463981
    12  H    2.932806   2.067337   2.975513   4.288750   3.485789
    13  H    2.782168   2.072732   3.624465   4.137036   2.704832
    14  H    2.932587   4.288614   2.067355   2.975292   3.485472
    15  H    2.782358   4.137147   2.072730   3.624752   2.705084
    16  H    2.932422   2.975188   4.288582   2.067361   3.485090
    17  H    2.782451   3.625006   4.137135   2.072718   2.705119
    18  H    4.737612   3.342105   5.279818   5.808294   5.117131
    19  H    4.116970   2.654892   5.072494   4.812308   4.576426
    20  H    4.211850   2.642960   4.624969   4.931673   5.070332
    21  H    4.737635   5.808349   3.342105   5.279636   5.117319
    22  H    4.117166   4.812497   2.654875   5.072447   4.576919
    23  H    4.211784   4.931688   2.642994   4.624562   5.070428
    24  H    4.737639   5.279535   5.808393   3.342095   5.117335
    25  H    4.117285   5.072367   4.812576   2.654843   4.577239
    26  H    4.211761   4.624234   4.931811   2.643024   5.070455
                    6          7          8          9         10
     6  C    0.000000
     7  C    4.527019   0.000000
     8  C    4.526946   4.526946   0.000000
     9  C    1.512981   5.918874   5.267337   0.000000
    10  C    5.267634   1.512979   5.918671   6.577743   0.000000
    11  C    5.918540   5.267720   1.512978   6.576995   6.577532
    12  H    1.095449   4.185545   5.209385   2.164705   4.640922
    13  H    1.094342   4.727275   4.624773   2.169312   5.596494
    14  H    5.209317   1.095449   4.185199   6.535029   2.164692
    15  H    4.624858   1.094343   4.727531   6.108006   2.169314
    16  H    4.185004   5.209209   1.095451   4.640203   6.534861
    17  H    4.727825   4.624670   1.094343   5.596819   6.107772
    18  H    2.145066   6.586355   6.271059   1.094075   7.128174
    19  H    2.156243   6.439697   4.959386   1.093127   7.275551
    20  H    2.157195   6.047166   5.495807   1.093044   6.565206
    21  H    6.271329   2.145056   6.586125   7.623882   1.094076
    22  H    4.959831   2.156244   6.439687   6.250498   1.093127
    23  H    5.496123   2.157194   6.046719   6.654664   1.093044
    24  H    6.586021   6.271352   2.145050   7.127376   7.623650
    25  H    6.439681   4.959946   2.156248   7.275108   6.250231
    26  H    6.046367   5.496352   2.157196   6.563935   6.654544
                   11         12         13         14         15
    11  C    0.000000
    12  H    6.534872   0.000000
    13  H    6.107806   1.781099   0.000000
    14  H    4.640826   5.016853   5.430350   0.000000
    15  H    5.597000   4.335905   4.569750   1.781093   0.000000
    16  H    2.164696   5.016451   4.335274   5.016552   5.430450
    17  H    2.169318   5.431012   4.570315   4.335286   4.569923
    18  H    7.623195   2.500979   2.510925   7.309702   6.685851
    19  H    6.249571   3.072627   2.507689   6.936902   6.584483
    20  H    6.653768   2.507670   3.076039   6.610141   6.418998
    21  H    7.127994   5.657428   6.506483   2.500966   2.510896
    22  H    7.275485   4.172168   5.260008   3.072618   2.507715
    23  H    6.564628   4.863208   6.010953   2.507641   3.076041
    24  H    1.094076   7.309538   6.685661   5.657227   6.506916
    25  H    1.093128   6.937079   6.584658   4.172052   5.260658
    26  H    1.093044   6.609525   6.418351   4.863427   6.011537
                   16         17         18         19         20
    16  H    0.000000
    17  H    1.781086   0.000000
    18  H    5.656682   6.506864   0.000000
    19  H    4.171320   5.260162   1.775277   0.000000
    20  H    4.862572   6.011217   1.775969   1.775970   0.000000
    21  H    7.309504   6.685530   8.155605   8.299447   7.647999
    22  H    6.936881   6.584551   6.651111   7.052275   6.281583
    23  H    6.609822   6.418521   7.263980   7.368974   6.462836
    24  H    2.500986   2.510872   8.154852   6.650118   7.263022
    25  H    3.072626   2.507746   8.299114   7.051640   7.368327
    26  H    2.507629   3.076047   7.646763   6.280155   6.461397
                   21         22         23         24         25
    21  H    0.000000
    22  H    1.775278   0.000000
    23  H    1.775973   1.775969   0.000000
    24  H    8.155376   8.299392   7.647415   0.000000
    25  H    6.650882   7.052192   6.280851   1.775275   0.000000
    26  H    7.263947   7.368887   6.462361   1.775976   1.775970
                   26
    26  H    0.000000
 Stoichiometry    C6H15O4P
 Framework group  C1[X(C6H15O4P)]
 Deg. of freedom    72
 Full point group                 C1      NOp   1
 Largest Abelian subgroup         C1      NOp   1
 Largest concise Abelian subgroup C1      NOp   1
                         Standard orientation:                         
 ---------------------------------------------------------------------
 Center     Atomic      Atomic             Coordinates (Angstroms)
 Number     Number       Type             X           Y           Z
 ---------------------------------------------------------------------
      1         15           0        0.000070   -0.000045    0.328455
      2          8           0       -1.046820   -0.982649   -0.367763
      3          8           0        1.374551   -0.415321   -0.367630
      4          8           0       -0.327492    1.398003   -0.367527
      5          8           0        0.000023   -0.000158    1.807679
      6          6           0       -1.181137   -2.331535    0.122299
      7          6           0        2.609813    0.142853    0.122546
      8          6           0       -1.428500    2.188647    0.122728
      9          6           0       -2.395179   -2.946836   -0.538472
     10          6           0        3.749795   -0.600347   -0.538665
     11          6           0       -1.355115    3.547403   -0.538710
     12          1           0       -0.269928   -2.883883   -0.131904
     13          1           0       -1.285706   -2.303922    1.211284
     14          1           0        2.632324    1.208274   -0.131187
     15          1           0        2.638313    0.038020    1.211483
     16          1           0       -2.362441    1.675302   -0.130735
     17          1           0       -1.351759    2.265915    1.211639
     18          1           0       -2.517532   -3.978871   -0.196515
     19          1           0       -3.298353   -2.386840   -0.282330
     20          1           0       -2.282978   -2.951065   -1.625734
     21          1           0        4.704679   -0.190262   -0.196572
     22          1           0        3.716640   -1.662646   -0.283033
     23          1           0        3.697259   -0.500552   -1.625875
     24          1           0       -2.187659    4.169307   -0.196499
     25          1           0       -0.418533    4.049950   -0.283387
     26          1           0       -1.415538    3.451841   -1.625891
 ---------------------------------------------------------------------
 Rotational constants (GHZ):           0.8142944           0.8141748           0.4724725
 Leave Link  202 at Wed Feb 26 10:22:35 2025, MaxMem=   104857600 cpu:               0.2 elap:               0.0
 (Enter /opt/apps/gaussian/16-C.01-1/libexec/avx2/g16/l301.exe)
 Standard basis: 6-31+G(d,p) (6D, 7F)
 Ernie: Thresh=  0.10000D-02 Tol=  0.10000D-05 Strict=F.
 There are   288 symmetry adapted cartesian basis functions of A   symmetry.
 There are   288 symmetry adapted basis functions of A   symmetry.
   288 basis functions,   481 primitive gaussians,   288 cartesian basis functions
    49 alpha electrons       49 beta electrons
       nuclear repulsion energy       831.1423026459 Hartrees.
 IExCor= 4639 DFT=T Ex+Corr=wB97XD ExCW=0 ScaHFX=  1.000000
 ScaDFX=  1.000000  1.000000  1.000000  1.000000 ScalE2=  1.000000  1.000000
 IRadAn=      5 IRanWt=     -1 IRanGd=            0 ICorTp=0 IEmpDi=121
 HFx  wShort=  0.000000 wLong=  0.200000 cFull=  0.222036 cShort=  0.000000 cLong=  0.777964
 DFx  wShort=  0.000000 wLong=  0.200000 cFull=  0.000000 cShort=  0.000000 cLong=  1.000000
 NAtoms=   26 NActive=   26 NUniq=   26 SFac= 1.00D+00 NAtFMM=   60 NAOKFM=F Big=F
 Integral buffers will be    131072 words long.
 Raffenetti 2 integral format.
 Two-electron integral symmetry is turned on.
 R6Disp:  Grimme-D2 Dispersion energy=       -0.0130587717 Hartrees.
 Nuclear repulsion after empirical dispersion term =      831.1292438742 Hartrees.
 Leave Link  301 at Wed Feb 26 10:22:35 2025, MaxMem=   104857600 cpu:               1.6 elap:               0.1
 (Enter /opt/apps/gaussian/16-C.01-1/libexec/avx2/g16/l302.exe)
 NPDir=0 NMtPBC=     1 NCelOv=     1 NCel=       1 NClECP=     1 NCelD=      1
         NCelK=      1 NCelE2=     1 NClLst=     1 CellRange=     0.0.
 One-electron integrals computed using PRISM.
 One-electron integral symmetry used in STVInt
 NBasis=   288 RedAO= T EigKep=  9.44D-05  NBF=   288
 NBsUse=   288 1.00D-06 EigRej= -1.00D+00 NBFU=   288
 Precomputing XC quadrature grid using
 IXCGrd= 4 IRadAn=           5 IRanWt=          -1 IRanGd=           0 AccXCQ= 0.00D+00.
 Generated NRdTot=       0 NPtTot=           0 NUsed=           0 NTot=          32
 NSgBfM=   287   287   287   287   287 MxSgAt=    26 MxSgA2=    26.
 Leave Link  302 at Wed Feb 26 10:22:36 2025, MaxMem=   104857600 cpu:               4.3 elap:               0.3
 (Enter /opt/apps/gaussian/16-C.01-1/libexec/avx2/g16/l303.exe)
 DipDrv:  MaxL=1.
 Leave Link  303 at Wed Feb 26 10:22:36 2025, MaxMem=   104857600 cpu:               1.0 elap:               0.1
 (Enter /opt/apps/gaussian/16-C.01-1/libexec/avx2/g16/l401.exe)
 ExpMin= 3.48D-02 ExpMax= 1.94D+04 ExpMxC= 2.91D+03 IAcc=3 IRadAn=         5 AccDes= 0.00D+00
 Harris functional with IExCor= 4639 and IRadAn=       5 diagonalized for initial guess.
 HarFok:  IExCor= 4639 AccDes= 0.00D+00 IRadAn=         5 IDoV= 1 UseB2=F ITyADJ=14
 ICtDFT=  3500011 ScaDFX=  1.000000  1.000000  1.000000  1.000000
 FoFCou: FMM=F IPFlag=           0 FMFlag=      100000 FMFlg1=           0
         NFxFlg=           0 DoJE=T BraDBF=F KetDBF=T FulRan=T
         wScrn=  0.000000 ICntrl=       500 IOpCl=  0 I1Cent=   200000004 NGrid=           0
         NMat0=    1 NMatS0=      1 NMatT0=    0 NMatD0=    1 NMtDS0=    0 NMtDT0=    0
 Petite list used in FoFCou.
 Harris En= -851.359427223458    
 JPrj=0 DoOrth=F DoCkMO=F.
 Leave Link  401 at Wed Feb 26 10:22:37 2025, MaxMem=   104857600 cpu:              10.2 elap:               0.7
 (Enter /opt/apps/gaussian/16-C.01-1/libexec/avx2/g16/l502.exe)
 Integral symmetry usage will be decided dynamically.
 Closed shell SCF:
 Using DIIS extrapolation, IDIIS=  1040.
 NGot=   104857600 LenX=   104683417 LenY=   104600032
 Requested convergence on RMS density matrix=1.00D-08 within 128 cycles.
 Requested convergence on MAX density matrix=1.00D-06.
 Requested convergence on             energy=1.00D-06.
 No special actions if energy rises.
 Fock matrices will be formed incrementally for  20 cycles.

 Cycle   1  Pass 1  IDiag  1:
 FoFJK:  IHMeth= 1 ICntrl=       0 DoSepK=T KAlg= 0 I1Cent=           0 FoldK=F
 IRaf=         1 NMat=       1 IRICut=       1 DoRegI=T DoRafI=F ISym2E= 0 IDoP0=0 IntGTp=1.
 FoFCou: FMM=F IPFlag=           0 FMFlag=      100000 FMFlg1=           0
         NFxFlg=           0 DoJE=T BraDBF=F KetDBF=F FulRan=T
         wScrn=  0.000000 ICntrl=       500 IOpCl=  0 I1Cent=           0 NGrid=           0
         NMat0=    1 NMatS0=      1 NMatT0=    0 NMatD0=    1 NMtDS0=    0 NMtDT0=    0
 Symmetry not used in FoFCou.
 E= -879.627615041429    
 DIIS: error= 8.42D-02 at cycle   1 NSaved=   1.
 NSaved= 1 IEnMin= 1 EnMin= -879.627615041429     IErMin= 1 ErrMin= 8.42D-02
 ErrMax= 8.42D-02  0.00D+00 EMaxC= 1.00D-01 BMatC= 6.97D-01 BMatP= 6.97D-01
 IDIUse=3 WtCom= 1.58D-01 WtEn= 8.42D-01
 Coeff-Com:  0.100D+01
 Coeff-En:   0.100D+01
 Coeff:      0.100D+01
 Gap=     0.535 Goal=   None    Shift=    0.000
 GapD=    0.535 DampG=2.000 DampE=0.500 DampFc=1.0000 IDamp=-1.
 RMSDP=4.92D-03 MaxDP=2.99D-01              OVMax= 9.95D-02

 Cycle   2  Pass 1  IDiag  1:
 RMSU=  4.91D-03    CP:  1.02D+00
 E= -879.720695171363     Delta-E=       -0.093080129935 Rises=F Damp=F
 DIIS: error= 1.63D-02 at cycle   2 NSaved=   2.
 NSaved= 2 IEnMin= 2 EnMin= -879.720695171363     IErMin= 2 ErrMin= 1.63D-02
 ErrMax= 1.63D-02  0.00D+00 EMaxC= 1.00D-01 BMatC= 1.86D-01 BMatP= 6.97D-01
 IDIUse=3 WtCom= 8.37D-01 WtEn= 1.63D-01
 Coeff-Com:  0.297D+00 0.703D+00
 Coeff-En:   0.330D+00 0.670D+00
 Coeff:      0.302D+00 0.698D+00
 Gap=     0.570 Goal=   None    Shift=    0.000
 RMSDP=2.76D-03 MaxDP=1.64D-01 DE=-9.31D-02 OVMax= 7.74D-02

 Cycle   3  Pass 1  IDiag  1:
 RMSU=  1.91D-03    CP:  1.00D+00  5.98D-01
 E= -879.815241872711     Delta-E=       -0.094546701348 Rises=F Damp=F
 DIIS: error= 1.15D-02 at cycle   3 NSaved=   3.
 NSaved= 3 IEnMin= 3 EnMin= -879.815241872711     IErMin= 3 ErrMin= 1.15D-02
 ErrMax= 1.15D-02  0.00D+00 EMaxC= 1.00D-01 BMatC= 6.47D-02 BMatP= 1.86D-01
 IDIUse=3 WtCom= 8.85D-01 WtEn= 1.15D-01
 Coeff-Com:  0.511D-01 0.374D+00 0.575D+00
 Coeff-En:   0.000D+00 0.245D+00 0.755D+00
 Coeff:      0.452D-01 0.359D+00 0.595D+00
 Gap=     0.458 Goal=   None    Shift=    0.000
 RMSDP=1.08D-03 MaxDP=4.48D-02 DE=-9.45D-02 OVMax= 5.60D-02

 Cycle   4  Pass 1  IDiag  1:
 RMSU=  7.24D-04    CP:  1.00D+00  6.95D-01  6.64D-01
 E= -879.859905447723     Delta-E=       -0.044663575012 Rises=F Damp=F
 DIIS: error= 3.34D-03 at cycle   4 NSaved=   4.
 NSaved= 4 IEnMin= 4 EnMin= -879.859905447723     IErMin= 4 ErrMin= 3.34D-03
 ErrMax= 3.34D-03  0.00D+00 EMaxC= 1.00D-01 BMatC= 3.58D-03 BMatP= 6.47D-02
 IDIUse=3 WtCom= 9.67D-01 WtEn= 3.34D-02
 Coeff-Com:  0.594D-02 0.127D+00 0.284D+00 0.583D+00
 Coeff-En:   0.000D+00 0.000D+00 0.000D+00 0.100D+01
 Coeff:      0.574D-02 0.123D+00 0.275D+00 0.597D+00
 Gap=     0.446 Goal=   None    Shift=    0.000
 RMSDP=2.59D-04 MaxDP=1.28D-02 DE=-4.47D-02 OVMax= 1.33D-02

 Cycle   5  Pass 1  IDiag  1:
 RMSU=  1.48D-04    CP:  1.00D+00  6.97D-01  7.24D-01  7.53D-01
 E= -879.862496007471     Delta-E=       -0.002590559748 Rises=F Damp=F
 DIIS: error= 4.58D-04 at cycle   5 NSaved=   5.
 NSaved= 5 IEnMin= 5 EnMin= -879.862496007471     IErMin= 5 ErrMin= 4.58D-04
 ErrMax= 4.58D-04  0.00D+00 EMaxC= 1.00D-01 BMatC= 1.12D-04 BMatP= 3.58D-03
 IDIUse=3 WtCom= 9.95D-01 WtEn= 4.58D-03
 Coeff-Com: -0.111D-02 0.138D-01 0.479D-01 0.204D+00 0.735D+00
 Coeff-En:   0.000D+00 0.000D+00 0.000D+00 0.000D+00 0.100D+01
 Coeff:     -0.110D-02 0.137D-01 0.477D-01 0.203D+00 0.736D+00
 Gap=     0.441 Goal=   None    Shift=    0.000
 RMSDP=7.12D-05 MaxDP=2.30D-03 DE=-2.59D-03 OVMax= 1.92D-03

 Cycle   6  Pass 1  IDiag  1:
 RMSU=  4.87D-05    CP:  1.00D+00  7.02D-01  7.35D-01  8.08D-01  9.85D-01
 E= -879.862575609358     Delta-E=       -0.000079601887 Rises=F Damp=F
 DIIS: error= 1.26D-04 at cycle   6 NSaved=   6.
 NSaved= 6 IEnMin= 6 EnMin= -879.862575609358     IErMin= 6 ErrMin= 1.26D-04
 ErrMax= 1.26D-04  0.00D+00 EMaxC= 1.00D-01 BMatC= 1.13D-05 BMatP= 1.12D-04
 IDIUse=3 WtCom= 9.99D-01 WtEn= 1.26D-03
 Coeff-Com: -0.920D-03-0.690D-02-0.725D-02 0.283D-01 0.298D+00 0.689D+00
 Coeff-En:   0.000D+00 0.000D+00 0.000D+00 0.000D+00 0.000D+00 0.100D+01
 Coeff:     -0.918D-03-0.689D-02-0.724D-02 0.283D-01 0.297D+00 0.689D+00
 Gap=     0.441 Goal=   None    Shift=    0.000
 RMSDP=2.67D-05 MaxDP=1.46D-03 DE=-7.96D-05 OVMax= 5.28D-04

 Cycle   7  Pass 1  IDiag  1:
 RMSU=  1.36D-05    CP:  1.00D+00  7.01D-01  7.42D-01  8.28D-01  1.05D+00
                    CP:  9.48D-01
 E= -879.862585554897     Delta-E=       -0.000009945539 Rises=F Damp=F
 DIIS: error= 2.52D-05 at cycle   7 NSaved=   7.
 NSaved= 7 IEnMin= 7 EnMin= -879.862585554897     IErMin= 7 ErrMin= 2.52D-05
 ErrMax= 2.52D-05  0.00D+00 EMaxC= 1.00D-01 BMatC= 6.31D-07 BMatP= 1.13D-05
 IDIUse=1 WtCom= 1.00D+00 WtEn= 0.00D+00
 Coeff-Com: -0.824D-04-0.320D-02-0.615D-02-0.108D-01 0.771D-02 0.193D+00
 Coeff-Com:  0.819D+00
 Coeff:     -0.824D-04-0.320D-02-0.615D-02-0.108D-01 0.771D-02 0.193D+00
 Coeff:      0.819D+00
 Gap=     0.441 Goal=   None    Shift=    0.000
 RMSDP=8.44D-06 MaxDP=1.98D-04 DE=-9.95D-06 OVMax= 1.32D-04

 Cycle   8  Pass 1  IDiag  1:
 RMSU=  3.22D-06    CP:  1.00D+00  7.01D-01  7.44D-01  8.32D-01  1.07D+00
                    CP:  1.04D+00  1.11D+00
 E= -879.862586149977     Delta-E=       -0.000000595079 Rises=F Damp=F
 DIIS: error= 7.94D-06 at cycle   8 NSaved=   8.
 NSaved= 8 IEnMin= 8 EnMin= -879.862586149977     IErMin= 8 ErrMin= 7.94D-06
 ErrMax= 7.94D-06  0.00D+00 EMaxC= 1.00D-01 BMatC= 4.12D-08 BMatP= 6.31D-07
 IDIUse=1 WtCom= 1.00D+00 WtEn= 0.00D+00
 Coeff-Com:  0.143D-04-0.584D-03-0.148D-02-0.579D-02-0.232D-01 0.121D-01
 Coeff-Com:  0.255D+00 0.764D+00
 Coeff:      0.143D-04-0.584D-03-0.148D-02-0.579D-02-0.232D-01 0.121D-01
 Coeff:      0.255D+00 0.764D+00
 Gap=     0.441 Goal=   None    Shift=    0.000
 RMSDP=2.59D-06 MaxDP=6.98D-05 DE=-5.95D-07 OVMax= 5.92D-05

 Cycle   9  Pass 1  IDiag  1:
 RMSU=  1.01D-06    CP:  1.00D+00  7.01D-01  7.44D-01  8.34D-01  1.08D+00
                    CP:  1.06D+00  1.18D+00  1.06D+00
 E= -879.862586203305     Delta-E=       -0.000000053328 Rises=F Damp=F
 DIIS: error= 1.15D-06 at cycle   9 NSaved=   9.
 NSaved= 9 IEnMin= 9 EnMin= -879.862586203305     IErMin= 9 ErrMin= 1.15D-06
 ErrMax= 1.15D-06  0.00D+00 EMaxC= 1.00D-01 BMatC= 8.72D-10 BMatP= 4.12D-08
 IDIUse=1 WtCom= 1.00D+00 WtEn= 0.00D+00
 Coeff-Com:  0.742D-05 0.156D-03 0.291D-03 0.459D-03-0.149D-02-0.107D-01
 Coeff-Com: -0.436D-01 0.436D-02 0.105D+01
 Coeff:      0.742D-05 0.156D-03 0.291D-03 0.459D-03-0.149D-02-0.107D-01
 Coeff:     -0.436D-01 0.436D-02 0.105D+01
 Gap=     0.441 Goal=   None    Shift=    0.000
 RMSDP=7.62D-07 MaxDP=1.81D-05 DE=-5.33D-08 OVMax= 1.83D-05

 Cycle  10  Pass 1  IDiag  1:
 RMSU=  1.98D-07    CP:  1.00D+00  7.01D-01  7.44D-01  8.34D-01  1.08D+00
                    CP:  1.07D+00  1.21D+00  1.16D+00  1.26D+00
 E= -879.862586205278     Delta-E=       -0.000000001973 Rises=F Damp=F
 DIIS: error= 3.79D-07 at cycle  10 NSaved=  10.
 NSaved=10 IEnMin=10 EnMin= -879.862586205278     IErMin=10 ErrMin= 3.79D-07
 ErrMax= 3.79D-07  0.00D+00 EMaxC= 1.00D-01 BMatC= 1.22D-10 BMatP= 8.72D-10
 IDIUse=1 WtCom= 1.00D+00 WtEn= 0.00D+00
 Coeff-Com:  0.163D-05 0.682D-04 0.144D-03 0.388D-03 0.548D-03-0.357D-02
 Coeff-Com: -0.229D-01-0.269D-01 0.340D+00 0.712D+00
 Coeff:      0.163D-05 0.682D-04 0.144D-03 0.388D-03 0.548D-03-0.357D-02
 Coeff:     -0.229D-01-0.269D-01 0.340D+00 0.712D+00
 Gap=     0.441 Goal=   None    Shift=    0.000
 RMSDP=1.00D-07 MaxDP=3.34D-06 DE=-1.97D-09 OVMax= 2.87D-06

 Cycle  11  Pass 1  IDiag  1:
 RMSU=  5.28D-08    CP:  1.00D+00  7.01D-01  7.44D-01  8.34D-01  1.08D+00
                    CP:  1.07D+00  1.22D+00  1.18D+00  1.31D+00  1.07D+00
 E= -879.862586205407     Delta-E=       -0.000000000129 Rises=F Damp=F
 DIIS: error= 9.72D-08 at cycle  11 NSaved=  11.
 NSaved=11 IEnMin=11 EnMin= -879.862586205407     IErMin=11 ErrMin= 9.72D-08
 ErrMax= 9.72D-08  0.00D+00 EMaxC= 1.00D-01 BMatC= 7.00D-12 BMatP= 1.22D-10
 IDIUse=1 WtCom= 1.00D+00 WtEn= 0.00D+00
 Coeff-Com: -0.461D-06-0.407D-05-0.484D-05 0.277D-04 0.319D-03 0.544D-03
 Coeff-Com:  0.755D-03-0.590D-02-0.661D-01 0.106D+00 0.964D+00
 Coeff:     -0.461D-06-0.407D-05-0.484D-05 0.277D-04 0.319D-03 0.544D-03
 Coeff:      0.755D-03-0.590D-02-0.661D-01 0.106D+00 0.964D+00
 Gap=     0.441 Goal=   None    Shift=    0.000
 RMSDP=4.70D-08 MaxDP=1.10D-06 DE=-1.29D-10 OVMax= 1.49D-06

 Cycle  12  Pass 1  IDiag  1:
 RMSU=  1.67D-08    CP:  1.00D+00  7.01D-01  7.44D-01  8.34D-01  1.08D+00
                    CP:  1.07D+00  1.22D+00  1.18D+00  1.34D+00  1.19D+00
                    CP:  1.21D+00
 E= -879.862586205418     Delta-E=       -0.000000000011 Rises=F Damp=F
 DIIS: error= 1.84D-08 at cycle  12 NSaved=  12.
 NSaved=12 IEnMin=12 EnMin= -879.862586205418     IErMin=12 ErrMin= 1.84D-08
 ErrMax= 1.84D-08  0.00D+00 EMaxC= 1.00D-01 BMatC= 1.82D-13 BMatP= 7.00D-12
 IDIUse=1 WtCom= 1.00D+00 WtEn= 0.00D+00
 Coeff-Com: -0.541D-07-0.303D-05-0.659D-05-0.184D-04-0.110D-04 0.160D-03
 Coeff-Com:  0.996D-03 0.904D-03-0.158D-01-0.295D-01 0.283D-01 0.101D+01
 Coeff:     -0.541D-07-0.303D-05-0.659D-05-0.184D-04-0.110D-04 0.160D-03
 Coeff:      0.996D-03 0.904D-03-0.158D-01-0.295D-01 0.283D-01 0.101D+01
 Gap=     0.441 Goal=   None    Shift=    0.000
 RMSDP=8.32D-09 MaxDP=2.74D-07 DE=-1.09D-11 OVMax= 3.33D-07

 SCF Done:  E(RwB97XD) =  -879.862586205     A.U. after   12 cycles
            NFock= 12  Conv=0.83D-08     -V/T= 2.0071
 KE= 8.736330882097D+02 PE=-3.731360174678D+03 EE= 1.146735256389D+03
 Leave Link  502 at Wed Feb 26 10:22:56 2025, MaxMem=   104857600 cpu:             292.1 elap:              18.4
 (Enter /opt/apps/gaussian/16-C.01-1/libexec/avx2/g16/l801.exe)
 DoSCS=F DFT=T ScalE2(SS,OS)=  1.000000  1.000000
 Range of M.O.s used for correlation:     1   288
 NBasis=   288 NAE=    49 NBE=    49 NFC=     0 NFV=     0
 NROrb=    288 NOA=    49 NOB=    49 NVA=   239 NVB=   239

 **** Warning!!: The largest alpha MO coefficient is  0.22584400D+02

 Leave Link  801 at Wed Feb 26 10:22:56 2025, MaxMem=   104857600 cpu:               0.7 elap:               0.1
 (Enter /opt/apps/gaussian/16-C.01-1/libexec/avx2/g16/l1101.exe)
 Using compressed storage, NAtomX=    26.
 Will process     27 centers per pass.
 R6Disp: Adding Grimme-D2 dispersion energy 1st derivatives to the gradient.
 Leave Link 1101 at Wed Feb 26 10:22:57 2025, MaxMem=   104857600 cpu:               5.7 elap:               0.4
 (Enter /opt/apps/gaussian/16-C.01-1/libexec/avx2/g16/l1102.exe)
 Symmetrizing basis deriv contribution to polar:
 IMax=3 JMax=2 DiffMx= 0.00D+00
 Leave Link 1102 at Wed Feb 26 10:22:57 2025, MaxMem=   104857600 cpu:               0.6 elap:               0.1
 (Enter /opt/apps/gaussian/16-C.01-1/libexec/avx2/g16/l1110.exe)
 Forming Gx(P) for the SCF density, NAtomX=    26.
 Integral derivatives from FoFJK, PRISM(SPDF).
 Do as many integral derivatives as possible in FoFJK.
 G2DrvN: MDV=     104854786.
 G2DrvN: will do    27 centers at a time, making    1 passes.
 Calling FoFCou, ICntrl=  3107 FMM=F I1Cent=   0 AccDes= 0.00D+00.
 FoFJK:  IHMeth= 1 ICntrl=    3107 DoSepK=T KAlg= 0 I1Cent=           0 FoldK=F
 IRaf=         1 NMat=       1 IRICut=       1 DoRegI=T DoRafI=F ISym2E= 0 IDoP0=0 IntGTp=1.
 FoFCou: FMM=F IPFlag=           0 FMFlag=      100000 FMFlg1=           0
         NFxFlg=           0 DoJE=F BraDBF=F KetDBF=F FulRan=T
         wScrn=  0.000000 ICntrl=      3507 IOpCl=  0 I1Cent=           0 NGrid=           0
         NMat0=    1 NMatS0=      1 NMatT0=    0 NMatD0=    1 NMtDS0=    0 NMtDT0=    0
 Symmetry not used in FoFCou.
 End of G2Drv F.D. properties file   721 does not exist.
 End of G2Drv F.D. properties file   722 does not exist.
 End of G2Drv F.D. properties file   788 does not exist.
 Leave Link 1110 at Wed Feb 26 10:23:23 2025, MaxMem=   104857600 cpu:             428.9 elap:              26.9
 (Enter /opt/apps/gaussian/16-C.01-1/libexec/avx2/g16/l1002.exe)
 Minotr:  Closed shell wavefunction.
          IDoAtm=11111111111111111111111111
          Direct CPHF calculation.
          Differentiating once with respect to electric field.
                with respect to dipole field.
          Differentiating once with respect to nuclear coordinates.
          Requested convergence is 1.0D-08 RMS, and 1.0D-07 maximum.
          Secondary convergence is 1.0D-12 RMS, and 1.0D-12 maximum.
          NewPWx=T KeepS1=F KeepF1=F KeepIn=T MapXYZ=F SortEE=F KeepMc=T.
         8050 words used for storage of precomputed grid.
 Two-electron integrals replicated using symmetry.
          MDV=     104857600 using IRadAn=       1.
          Solving linear equations simultaneously, MaxMat=     384.
 FoF2E skips out because all densities are zero.
 CalDSu exits because no D1Ps are significant.
 FoFJK:  IHMeth= 1 ICntrl=       0 DoSepK=T KAlg= 0 I1Cent=           0 FoldK=F
 IRaf=         1 NMat=      32 IRICut=       1 DoRegI=T DoRafI=F ISym2E= 2 IDoP0=0 IntGTp=1.
 FoFCou: FMM=F IPFlag=           0 FMFlag=      100000 FMFlg1=           0
         NFxFlg=           0 DoJE=F BraDBF=F KetDBF=F FulRan=T
         wScrn=  0.000000 ICntrl=       500 IOpCl=  0 I1Cent=           0 NGrid=           0
         NMat0=   32 NMatS0=     32 NMatT0=    0 NMatD0=   32 NMtDS0=    0 NMtDT0=    0
 Integrals replicated using symmetry in FoFCou.
          There are    81 degrees of freedom in the 1st order CPHF.  IDoFFX=6 NUNeed=     3.
     78 vectors produced by pass  0 Test12= 1.45D-14 1.23D-09 XBig12= 3.46D+01 8.47D-01.
 AX will form    32 AO Fock derivatives at one time.
     78 vectors produced by pass  1 Test12= 1.45D-14 1.23D-09 XBig12= 4.40D+00 2.63D-01.
     78 vectors produced by pass  2 Test12= 1.45D-14 1.23D-09 XBig12= 9.90D-02 4.42D-02.
     78 vectors produced by pass  3 Test12= 1.45D-14 1.23D-09 XBig12= 1.03D-03 5.25D-03.
     78 vectors produced by pass  4 Test12= 1.45D-14 1.23D-09 XBig12= 6.50D-06 2.84D-04.
     78 vectors produced by pass  5 Test12= 1.45D-14 1.23D-09 XBig12= 4.25D-08 1.97D-05.
     57 vectors produced by pass  6 Test12= 1.45D-14 1.23D-09 XBig12= 2.82D-10 1.62D-06.
      9 vectors produced by pass  7 Test12= 1.45D-14 1.23D-09 XBig12= 1.40D-12 1.78D-07.
      4 vectors produced by pass  8 Test12= 1.45D-14 1.23D-09 XBig12= 7.15D-15 1.84D-08.
      1 vectors produced by pass  9 Test12= 1.45D-14 1.23D-09 XBig12= 3.97D-17 1.55D-09.
 InvSVY:  IOpt=1 It=  1 EMax= 7.11D-15
 Solved reduced A of dimension   539 with    81 vectors.
 FullF1:  Do perturbations      1 to       3.
 Isotropic polarizability for W=    0.000000      104.23 Bohr**3.
 End of Minotr F.D. properties file   721 does not exist.
 End of Minotr F.D. properties file   722 does not exist.
 End of Minotr F.D. properties file   788 does not exist.
 Leave Link 1002 at Wed Feb 26 10:25:27 2025, MaxMem=   104857600 cpu:            1976.5 elap:             124.0
 (Enter /opt/apps/gaussian/16-C.01-1/libexec/avx2/g16/l601.exe)
 Copying SCF densities to generalized density rwf, IOpCl= 0 IROHF=0.

 **********************************************************************

            Population analysis using the SCF Density.

 **********************************************************************

 Orbital symmetries:
       Occupied  (A) (A) (A) (A) (A) (A) (A) (A) (A) (A) (A) (A)
                 (A) (A) (A) (A) (A) (A) (A) (A) (A) (A) (A) (A)
                 (A) (A) (A) (A) (A) (A) (A) (A) (A) (A) (A) (A)
                 (A) (A) (A) (A) (A) (A) (A) (A) (A) (A) (A) (A)
                 (A)
       Virtual   (A) (A) (A) (A) (A) (A) (A) (A) (A) (A) (A) (A)
                 (A) (A) (A) (A) (A) (A) (A) (A) (A) (A) (A) (A)
                 (A) (A) (A) (A) (A) (A) (A) (A) (A) (A) (A) (A)
                 (A) (A) (A) (A) (A) (A) (A) (A) (A) (A) (A) (A)
                 (A) (A) (A) (A) (A) (A) (A) (A) (A) (A) (A) (A)
                 (A) (A) (A) (A) (A) (A) (A) (A) (A) (A) (A) (A)
                 (A) (A) (A) (A) (A) (A) (A) (A) (A) (A) (A) (A)
                 (A) (A) (A) (A) (A) (A) (A) (A) (A) (A) (A) (A)
                 (A) (A) (A) (A) (A) (A) (A) (A) (A) (A) (A) (A)
                 (A) (A) (A) (A) (A) (A) (A) (A) (A) (A) (A) (A)
                 (A) (A) (A) (A) (A) (A) (A) (A) (A) (A) (A) (A)
                 (A) (A) (A) (A) (A) (A) (A) (A) (A) (A) (A) (A)
                 (A) (A) (A) (A) (A) (A) (A) (A) (A) (A) (A) (A)
                 (A) (A) (A) (A) (A) (A) (A) (A) (A) (A) (A) (A)
                 (A) (A) (A) (A) (A) (A) (A) (A) (A) (A) (A) (A)
                 (A) (A) (A) (A) (A) (A) (A) (A) (A) (A) (A) (A)
                 (A) (A) (A) (A) (A) (A) (A) (A) (A) (A) (A) (A)
                 (A) (A) (A) (A) (A) (A) (A) (A) (A) (A) (A) (A)
                 (A) (A) (A) (A) (A) (A) (A) (A) (A) (A) (A) (A)
                 (A) (A) (A) (A) (A) (A) (A) (A) (A) (A) (A)
 The electronic state is 1-A.
 Alpha  occ. eigenvalues --  -77.39146 -19.30808 -19.30808 -19.30808 -19.23546
 Alpha  occ. eigenvalues --  -10.36156 -10.36156 -10.36156 -10.29781 -10.29781
 Alpha  occ. eigenvalues --  -10.29781  -6.79883  -4.94820  -4.94820  -4.94643
 Alpha  occ. eigenvalues --   -1.20520  -1.14283  -1.14282  -1.06133  -0.88417
 Alpha  occ. eigenvalues --   -0.86317  -0.86317  -0.75550  -0.72557  -0.72557
 Alpha  occ. eigenvalues --   -0.66889  -0.62210  -0.62210  -0.57890  -0.57239
 Alpha  occ. eigenvalues --   -0.57239  -0.53274  -0.52493  -0.52493  -0.49610
 Alpha  occ. eigenvalues --   -0.48317  -0.48316  -0.47978  -0.46674  -0.46673
 Alpha  occ. eigenvalues --   -0.45953  -0.43573  -0.43573  -0.42404  -0.40287
 Alpha  occ. eigenvalues --   -0.40287  -0.39612  -0.37266  -0.37266
 Alpha virt. eigenvalues --    0.06851   0.07607   0.07608   0.08770   0.09456
 Alpha virt. eigenvalues --    0.09457   0.09953   0.11153   0.11153   0.12012
 Alpha virt. eigenvalues --    0.12816   0.13381   0.13382   0.13988   0.13989
 Alpha virt. eigenvalues --    0.14080   0.16454   0.16517   0.16517   0.17672
 Alpha virt. eigenvalues --    0.17900   0.17902   0.19051   0.20169   0.20170
 Alpha virt. eigenvalues --    0.21729   0.21730   0.21869   0.22722   0.23554
 Alpha virt. eigenvalues --    0.23555   0.24596   0.25759   0.25759   0.26368
 Alpha virt. eigenvalues --    0.27548   0.27548   0.28996   0.29702   0.29703
 Alpha virt. eigenvalues --    0.30897   0.31855   0.32263   0.32264   0.32975
 Alpha virt. eigenvalues --    0.33359   0.33359   0.37164   0.37187   0.37189
 Alpha virt. eigenvalues --    0.37974   0.38252   0.38254   0.39865   0.39866
 Alpha virt. eigenvalues --    0.39974   0.41003   0.41005   0.41989   0.43177
 Alpha virt. eigenvalues --    0.43618   0.43621   0.44090   0.45793   0.45794
 Alpha virt. eigenvalues --    0.48386   0.54833   0.55121   0.55123   0.66532
 Alpha virt. eigenvalues --    0.66533   0.69904   0.72981   0.72981   0.73531
 Alpha virt. eigenvalues --    0.75047   0.75049   0.75628   0.76131   0.76132
 Alpha virt. eigenvalues --    0.78335   0.78336   0.79205   0.82720   0.85013
 Alpha virt. eigenvalues --    0.85016   0.88813   0.88978   0.88980   0.93091
 Alpha virt. eigenvalues --    0.98545   0.98549   0.99950   1.01972   1.02261
 Alpha virt. eigenvalues --    1.02263   1.04405   1.04406   1.04995   1.08972
 Alpha virt. eigenvalues --    1.08973   1.10724   1.10725   1.10800   1.16657
 Alpha virt. eigenvalues --    1.17823   1.17826   1.18626   1.20806   1.20808
 Alpha virt. eigenvalues --    1.20985   1.24761   1.26256   1.26257   1.31368
 Alpha virt. eigenvalues --    1.31369   1.31436   1.37054   1.39083   1.39086
 Alpha virt. eigenvalues --    1.42994   1.42997   1.44936   1.46668   1.46672
 Alpha virt. eigenvalues --    1.51899   1.52825   1.52827   1.54193   1.58560
 Alpha virt. eigenvalues --    1.58561   1.62937   1.70371   1.70372   1.71894
 Alpha virt. eigenvalues --    1.74425   1.74648   1.74649   1.78885   1.81178
 Alpha virt. eigenvalues --    1.81181   1.84286   1.84288   1.86975   1.95505
 Alpha virt. eigenvalues --    1.95509   1.98422   2.00368   2.00368   2.00757
 Alpha virt. eigenvalues --    2.01962   2.03874   2.03875   2.07001   2.07065
 Alpha virt. eigenvalues --    2.07070   2.10405   2.10406   2.11601   2.12900
 Alpha virt. eigenvalues --    2.12901   2.13032   2.18167   2.18167   2.19473
 Alpha virt. eigenvalues --    2.19915   2.19916   2.20862   2.21933   2.21936
 Alpha virt. eigenvalues --    2.21971   2.26740   2.26742   2.28719   2.34735
 Alpha virt. eigenvalues --    2.34736   2.38140   2.38141   2.38574   2.46406
 Alpha virt. eigenvalues --    2.49403   2.49404   2.55994   2.56125   2.56127
 Alpha virt. eigenvalues --    2.57949   2.57950   2.57964   2.68444   2.73556
 Alpha virt. eigenvalues --    2.73558   2.77619   2.81269   2.81271   2.83122
 Alpha virt. eigenvalues --    2.83343   2.83343   2.84881   2.84882   2.85242
 Alpha virt. eigenvalues --    2.90955   2.92873   2.92874   2.92886   2.96860
 Alpha virt. eigenvalues --    2.96860   2.97601   2.98123   2.98124   3.04903
 Alpha virt. eigenvalues --    3.11273   3.11274   3.11443   3.35507   3.35507
 Alpha virt. eigenvalues --    3.35726   3.40418   3.41083   3.41084   3.49622
 Alpha virt. eigenvalues --    3.49622   3.50224   3.56518   3.57659   3.57659
 Alpha virt. eigenvalues --    3.62203   3.62203   3.62928   3.70140   4.34243
 Alpha virt. eigenvalues --    4.38483   4.38484   4.45533   4.53952   4.53954
 Alpha virt. eigenvalues --    4.56764   4.74759   4.74761   4.77056
          Condensed to atoms (all electrons):
               1          2          3          4          5          6
     1  P   12.730894  -0.110323  -0.110426  -0.110304   0.668357  -0.009604
     2  O   -0.110323   8.873502   0.058379   0.058323  -0.102855   0.041581
     3  O   -0.110426   0.058379   8.873561   0.058324  -0.102854  -0.009012
     4  O   -0.110304   0.058323   0.058324   8.873509  -0.102837  -0.005317
     5  O    0.668357  -0.102855  -0.102854  -0.102837   8.597228  -0.046735
     6  C   -0.009604   0.041581  -0.009012  -0.005317  -0.046735   5.228097
     7  C   -0.009560  -0.005345   0.041518  -0.009032  -0.046709  -0.000622
     8  C   -0.009545  -0.009068  -0.005320   0.041559  -0.046717  -0.000645
     9  C   -0.068509  -0.026171   0.024151  -0.004467  -0.008688   0.191578
    10  C   -0.068511  -0.004451  -0.026158   0.024155  -0.008679   0.000318
    11  C   -0.068530   0.024159  -0.004454  -0.026175  -0.008678   0.002843
    12  H   -0.004031  -0.050048   0.001891  -0.001596  -0.000644   0.409421
    13  H    0.004296  -0.063390  -0.000732   0.000999   0.001896   0.410707
    14  H   -0.004017  -0.001595  -0.050055   0.001890  -0.000646  -0.001253
    15  H    0.004273   0.000997  -0.063374  -0.000727   0.001896   0.000757
    16  H   -0.004016   0.001896  -0.001596  -0.050050  -0.000646  -0.004640
    17  H    0.004258  -0.000725   0.000996  -0.063365   0.001893   0.002019
    18  H    0.004762   0.008734  -0.000027   0.000059   0.000061  -0.046326
    19  H   -0.000294  -0.003901   0.000010  -0.000234  -0.000178  -0.057692
    20  H   -0.002270  -0.006530  -0.000121  -0.000054  -0.000134  -0.048332
    21  H    0.004762   0.000059   0.008735  -0.000027   0.000061  -0.000258
    22  H   -0.000296  -0.000234  -0.003905   0.000010  -0.000178  -0.000298
    23  H   -0.002271  -0.000054  -0.006529  -0.000120  -0.000134   0.000207
    24  H    0.004762  -0.000027   0.000059   0.008735   0.000061  -0.000013
    25  H   -0.000297   0.000010  -0.000234  -0.003907  -0.000178  -0.000066
    26  H   -0.002272  -0.000120  -0.000054  -0.006527  -0.000134   0.000070
               7          8          9         10         11         12
     1  P   -0.009560  -0.009545  -0.068509  -0.068511  -0.068530  -0.004031
     2  O   -0.005345  -0.009068  -0.026171  -0.004451   0.024159  -0.050048
     3  O    0.041518  -0.005320   0.024151  -0.026158  -0.004454   0.001891
     4  O   -0.009032   0.041559  -0.004467   0.024155  -0.026175  -0.001596
     5  O   -0.046709  -0.046717  -0.008688  -0.008679  -0.008678  -0.000644
     6  C   -0.000622  -0.000645   0.191578   0.000318   0.002843   0.409421
     7  C    5.228211  -0.000634   0.002833   0.191488   0.000323  -0.004642
     8  C   -0.000634   5.228176   0.000319   0.002835   0.191504  -0.001253
     9  C    0.002833   0.000319   5.265419   0.000242   0.000242  -0.027035
    10  C    0.191488   0.002835   0.000242   5.265484   0.000244   0.002331
    11  C    0.000323   0.191504   0.000242   0.000244   5.265481  -0.000087
    12  H   -0.004642  -0.001253  -0.027035   0.002331  -0.000087   0.553919
    13  H    0.002022   0.000757  -0.028324  -0.000418   0.000400  -0.038321
    14  H    0.409423  -0.004639  -0.000087  -0.027045   0.002330   0.000000
    15  H    0.410703   0.002018   0.000400  -0.028316  -0.000418   0.000001
    16  H   -0.001254   0.409418   0.002331  -0.000086  -0.027050   0.000000
    17  H    0.000758   0.410697  -0.000417   0.000400  -0.028306   0.000000
    18  H   -0.000013  -0.000258   0.393604   0.000046  -0.000016  -0.001073
    19  H   -0.000066  -0.000299   0.426459   0.000020   0.000015   0.004007
    20  H    0.000070   0.000207   0.421437  -0.000016   0.000058  -0.005136
    21  H   -0.046320  -0.000013  -0.000016   0.393599   0.000046  -0.000000
    22  H   -0.057697  -0.000066   0.000016   0.426469   0.000020  -0.000003
    23  H   -0.048331   0.000070   0.000058   0.421435  -0.000016  -0.000001
    24  H   -0.000258  -0.046314   0.000046  -0.000016   0.393592  -0.000000
    25  H   -0.000298  -0.057700   0.000020   0.000016   0.426475  -0.000000
    26  H    0.000207  -0.048327  -0.000016   0.000058   0.421430   0.000000
              13         14         15         16         17         18
     1  P    0.004296  -0.004017   0.004273  -0.004016   0.004258   0.004762
     2  O   -0.063390  -0.001595   0.000997   0.001896  -0.000725   0.008734
     3  O   -0.000732  -0.050055  -0.063374  -0.001596   0.000996  -0.000027
     4  O    0.000999   0.001890  -0.000727  -0.050050  -0.063365   0.000059
     5  O    0.001896  -0.000646   0.001896  -0.000646   0.001893   0.000061
     6  C    0.410707  -0.001253   0.000757  -0.004640   0.002019  -0.046326
     7  C    0.002022   0.409423   0.410703  -0.001254   0.000758  -0.000013
     8  C    0.000757  -0.004639   0.002018   0.409418   0.410697  -0.000258
     9  C   -0.028324  -0.000087   0.000400   0.002331  -0.000417   0.393604
    10  C   -0.000418  -0.027045  -0.028316  -0.000086   0.000400   0.000046
    11  C    0.000400   0.002330  -0.000418  -0.027050  -0.028306  -0.000016
    12  H   -0.038321   0.000000   0.000001   0.000000   0.000000  -0.001073
    13  H    0.533391   0.000000  -0.000004   0.000001  -0.000004  -0.001331
    14  H    0.000000   0.553920  -0.038322   0.000000   0.000001  -0.000000
    15  H   -0.000004  -0.038322   0.533395   0.000000  -0.000004  -0.000000
    16  H    0.000001   0.000000   0.000000   0.553922  -0.038324  -0.000000
    17  H   -0.000004   0.000001  -0.000004  -0.038324   0.533399   0.000000
    18  H   -0.001331  -0.000000  -0.000000  -0.000000   0.000000   0.528290
    19  H   -0.005315  -0.000000   0.000000  -0.000003   0.000000  -0.024033
    20  H    0.003831   0.000000  -0.000000  -0.000001   0.000000  -0.024292
    21  H    0.000000  -0.001074  -0.001331  -0.000000  -0.000000  -0.000000
    22  H    0.000000   0.004007  -0.005315  -0.000000   0.000000  -0.000000
    23  H    0.000000  -0.005137   0.003832   0.000000  -0.000000  -0.000000
    24  H   -0.000000  -0.000000   0.000000  -0.001074  -0.001331  -0.000000
    25  H    0.000000  -0.000003   0.000000   0.004007  -0.005315  -0.000000
    26  H   -0.000000  -0.000001   0.000000  -0.005137   0.003832   0.000000
              19         20         21         22         23         24
     1  P   -0.000294  -0.002270   0.004762  -0.000296  -0.002271   0.004762
     2  O   -0.003901  -0.006530   0.000059  -0.000234  -0.000054  -0.000027
     3  O    0.000010  -0.000121   0.008735  -0.003905  -0.006529   0.000059
     4  O   -0.000234  -0.000054  -0.000027   0.000010  -0.000120   0.008735
     5  O   -0.000178  -0.000134   0.000061  -0.000178  -0.000134   0.000061
     6  C   -0.057692  -0.048332  -0.000258  -0.000298   0.000207  -0.000013
     7  C   -0.000066   0.000070  -0.046320  -0.057697  -0.048331  -0.000258
     8  C   -0.000299   0.000207  -0.000013  -0.000066   0.000070  -0.046314
     9  C    0.426459   0.421437  -0.000016   0.000016   0.000058   0.000046
    10  C    0.000020  -0.000016   0.393599   0.426469   0.421435  -0.000016
    11  C    0.000015   0.000058   0.000046   0.000020  -0.000016   0.393592
    12  H    0.004007  -0.005136  -0.000000  -0.000003  -0.000001  -0.000000
    13  H   -0.005315   0.003831   0.000000   0.000000   0.000000  -0.000000
    14  H   -0.000000   0.000000  -0.001074   0.004007  -0.005137  -0.000000
    15  H    0.000000  -0.000000  -0.001331  -0.005315   0.003832   0.000000
    16  H   -0.000003  -0.000001  -0.000000  -0.000000   0.000000  -0.001074
    17  H    0.000000   0.000000  -0.000000   0.000000  -0.000000  -0.001331
    18  H   -0.024033  -0.024292  -0.000000  -0.000000  -0.000000  -0.000000
    19  H    0.514674  -0.025664  -0.000000  -0.000000   0.000000  -0.000000
    20  H   -0.025664   0.513055   0.000000   0.000000  -0.000000  -0.000000
    21  H   -0.000000   0.000000   0.528291  -0.024033  -0.024292  -0.000000
    22  H   -0.000000   0.000000  -0.024033   0.514669  -0.025664  -0.000000
    23  H    0.000000  -0.000000  -0.024292  -0.025664   0.513053   0.000000
    24  H   -0.000000  -0.000000  -0.000000  -0.000000   0.000000   0.528291
    25  H   -0.000000   0.000000  -0.000000  -0.000000   0.000000  -0.024034
    26  H    0.000000  -0.000000  -0.000000   0.000000  -0.000000  -0.024292
              25         26
     1  P   -0.000297  -0.002272
     2  O    0.000010  -0.000120
     3  O   -0.000234  -0.000054
     4  O   -0.003907  -0.006527
     5  O   -0.000178  -0.000134
     6  C   -0.000066   0.000070
     7  C   -0.000298   0.000207
     8  C   -0.057700  -0.048327
     9  C    0.000020  -0.000016
    10  C    0.000016   0.000058
    11  C    0.426475   0.421430
    12  H   -0.000000   0.000000
    13  H    0.000000  -0.000000
    14  H   -0.000003  -0.000001
    15  H    0.000000   0.000000
    16  H    0.004007  -0.005137
    17  H   -0.005315   0.003832
    18  H   -0.000000   0.000000
    19  H   -0.000000   0.000000
    20  H    0.000000  -0.000000
    21  H   -0.000000  -0.000000
    22  H   -0.000000   0.000000
    23  H    0.000000  -0.000000
    24  H   -0.024034  -0.024292
    25  H    0.514668  -0.025664
    26  H   -0.025664   0.513053
 Mulliken charges:
               1
     1  P    2.158715
     2  O   -0.682802
     3  O   -0.682774
     4  O   -0.682823
     5  O   -0.793829
     6  C   -0.056784
     7  C   -0.056775
     8  C   -0.056763
     9  C   -0.565427
    10  C   -0.565442
    11  C   -0.565434
    12  H    0.162303
    13  H    0.179540
    14  H    0.162302
    15  H    0.179540
    16  H    0.162303
    17  H    0.179539
    18  H    0.161814
    19  H    0.172493
    20  H    0.173892
    21  H    0.161813
    22  H    0.172498
    23  H    0.173895
    24  H    0.161814
    25  H    0.172499
    26  H    0.173894
 Sum of Mulliken charges =  -0.00000
 Mulliken charges with hydrogens summed into heavy atoms:
               1
     1  P    2.158715
     2  O   -0.682802
     3  O   -0.682774
     4  O   -0.682823
     5  O   -0.793829
     6  C    0.285059
     7  C    0.285067
     8  C    0.285079
     9  C   -0.057227
    10  C   -0.057237
    11  C   -0.057228
 APT charges:
               1
     1  P    2.601496
     2  O   -1.099885
     3  O   -1.100362
     4  O   -1.100421
     5  O   -0.919034
     6  C    0.581187
     7  C    0.581230
     8  C    0.581331
     9  C    0.022229
    10  C    0.022117
    11  C    0.022364
    12  H   -0.043267
    13  H   -0.016110
    14  H   -0.043100
    15  H   -0.016235
    16  H   -0.043090
    17  H   -0.016268
    18  H   -0.006905
    19  H    0.000049
    20  H    0.002122
    21  H   -0.006855
    22  H    0.000206
    23  H    0.002051
    24  H   -0.007103
    25  H    0.000182
    26  H    0.002073
 Sum of APT charges =  -0.00000
 APT charges with hydrogens summed into heavy atoms:
               1
     1  P    2.601496
     2  O   -1.099885
     3  O   -1.100362
     4  O   -1.100421
     5  O   -0.919034
     6  C    0.521809
     7  C    0.521894
     8  C    0.521973
     9  C    0.017495
    10  C    0.017520
    11  C    0.017516
 Electronic spatial extent (au):  <R**2>=           2603.8975
 Charge=             -0.0000 electrons
 Dipole moment (field-independent basis, Debye):
    X=              0.0001    Y=              0.0002    Z=             -1.2647  Tot=              1.2647
 Quadrupole moment (field-independent basis, Debye-Ang):
   XX=            -63.7079   YY=            -63.7091   ZZ=            -83.2632
   XY=              0.0004   XZ=             -0.0000   YZ=              0.0014
 Traceless Quadrupole moment (field-independent basis, Debye-Ang):
   XX=              6.5188   YY=              6.5177   ZZ=            -13.0365
   XY=              0.0004   XZ=             -0.0000   YZ=              0.0014
 Octapole moment (field-independent basis, Debye-Ang**2):
  XXX=             17.2662  YYY=             -4.0425  ZZZ=            -15.8598  XYY=            -17.2611
  XXY=              4.0414  XXZ=              3.6466  XZZ=              0.0004  YZZ=              0.0016
  YYZ=              3.6462  XYZ=             -0.0014
 Hexadecapole moment (field-independent basis, Debye-Ang**3):
 XXXX=          -1503.4387 YYYY=          -1503.1785 ZZZZ=           -324.6828 XXXY=              0.0016
 XXXZ=              2.1003 YYYX=              0.0033 YYYZ=              0.9770 ZZZX=              0.0038
 ZZZY=              0.0046 XXYY=           -501.1034 XXZZ=           -314.7958 YYZZ=           -314.7534
 XXYZ=             -0.9658 YYXZ=             -2.1031 ZZXY=             -0.0002
 N-N= 8.311292438742D+02 E-N=-3.731360173791D+03  KE= 8.736330882097D+02
  Exact polarizability:     110.942      -0.005     110.961      -0.000      -0.008      90.781
 Approx polarizability:     103.878       0.000     103.878      -0.000       0.000     104.083
 No NMR shielding tensors so no spin-rotation constants.
 Leave Link  601 at Wed Feb 26 10:25:28 2025, MaxMem=   104857600 cpu:               2.2 elap:               0.2
 (Enter /opt/apps/gaussian/16-C.01-1/libexec/avx2/g16/l607.exe)
 ******************************Gaussian NBO Version 3.1******************************
             N A T U R A L   A T O M I C   O R B I T A L   A N D
          N A T U R A L   B O N D   O R B I T A L   A N A L Y S I S
 ******************************Gaussian NBO Version 3.1******************************
       /RESON  / : Allow strongly delocalized NBO set

 Analyzing the SCF density

 Job title: 42_CID_6535_Triethyl_phosphate_superfine_back.com               

 Storage needed:    251174 in NPA,    333339 in NBO ( 104853960 available)
 GSVD:  LWork=       39144 too small for GESVD, short by       47142 words or       47142 for optimal perf.


 NATURAL POPULATIONS:  Natural atomic orbital occupancies 
                                                          
   NAO  Atom  No  lang   Type(AO)    Occupancy      Energy
 ----------------------------------------------------------
     1    P    1  S      Cor( 1S)     2.00000     -76.29169
     2    P    1  S      Cor( 2S)     1.99919      -7.74802
     3    P    1  S      Val( 3S)     0.72660      -0.23177
     4    P    1  S      Ryd( 4S)     0.00205       0.65464
     5    P    1  S      Ryd( 6S)     0.00096       2.91403
     6    P    1  S      Ryd( 5S)     0.00017       1.31523
     7    P    1  px     Cor( 2p)     1.99982      -4.93728
     8    P    1  px     Val( 3p)     0.51551       0.03915
     9    P    1  px     Ryd( 5p)     0.00372       0.68222
    10    P    1  px     Ryd( 4p)     0.00091       0.33965
    11    P    1  py     Cor( 2p)     1.99982      -4.93729
    12    P    1  py     Val( 3p)     0.51551       0.03915
    13    P    1  py     Ryd( 5p)     0.00372       0.68223
    14    P    1  py     Ryd( 4p)     0.00091       0.33965
    15    P    1  pz     Cor( 2p)     1.99984      -4.93269
    16    P    1  pz     Val( 3p)     0.47989       0.09472
    17    P    1  pz     Ryd( 5p)     0.01049       0.67591
    18    P    1  pz     Ryd( 4p)     0.00141       0.38811
    19    P    1  dxy    Ryd( 3d)     0.01758       0.95599
    20    P    1  dxz    Ryd( 3d)     0.02809       1.00080
    21    P    1  dyz    Ryd( 3d)     0.02809       1.00076
    22    P    1  dx2y2  Ryd( 3d)     0.01758       0.95604
    23    P    1  dz2    Ryd( 3d)     0.01909       1.14493
 
    24    O    2  S      Cor( 1S)     1.99978     -19.11522
    25    O    2  S      Val( 2S)     1.68039      -1.00916
    26    O    2  S      Ryd( 3S)     0.00171       1.38727
    27    O    2  S      Ryd( 4S)     0.00060       1.52455
    28    O    2  S      Ryd( 5S)     0.00003       4.00914
    29    O    2  px     Val( 2p)     1.81008      -0.43026
    30    O    2  px     Ryd( 3p)     0.00335       0.80272
    31    O    2  px     Ryd( 4p)     0.00047       1.17233
    32    O    2  py     Val( 2p)     1.52160      -0.39839
    33    O    2  py     Ryd( 3p)     0.00342       1.02745
    34    O    2  py     Ryd( 4p)     0.00072       1.25294
    35    O    2  pz     Val( 2p)     1.83378      -0.42062
    36    O    2  pz     Ryd( 3p)     0.00324       0.64379
    37    O    2  pz     Ryd( 4p)     0.00041       1.15513
    38    O    2  dxy    Ryd( 3d)     0.00066       2.40059
    39    O    2  dxz    Ryd( 3d)     0.00134       2.20156
    40    O    2  dyz    Ryd( 3d)     0.00102       2.33529
    41    O    2  dx2y2  Ryd( 3d)     0.00096       2.33163
    42    O    2  dz2    Ryd( 3d)     0.00151       2.11450
 
    43    O    3  S      Cor( 1S)     1.99978     -19.11523
    44    O    3  S      Val( 2S)     1.68039      -1.00916
    45    O    3  S      Ryd( 3S)     0.00171       1.38718
    46    O    3  S      Ryd( 4S)     0.00060       1.52455
    47    O    3  S      Ryd( 5S)     0.00003       4.00916
    48    O    3  px     Val( 2p)     1.49518      -0.41440
    49    O    3  px     Ryd( 3p)     0.00282       1.10744
    50    O    3  px     Ryd( 4p)     0.00073       1.26004
    51    O    3  py     Val( 2p)     1.83651      -0.41427
    52    O    3  py     Ryd( 3p)     0.00396       0.72269
    53    O    3  py     Ryd( 4p)     0.00046       1.16530
    54    O    3  pz     Val( 2p)     1.83377      -0.42062
    55    O    3  pz     Ryd( 3p)     0.00324       0.64381
    56    O    3  pz     Ryd( 4p)     0.00041       1.15513
    57    O    3  dxy    Ryd( 3d)     0.00076       2.31862
    58    O    3  dxz    Ryd( 3d)     0.00078       2.45736
    59    O    3  dyz    Ryd( 3d)     0.00158       2.07946
    60    O    3  dx2y2  Ryd( 3d)     0.00086       2.41361
    61    O    3  dz2    Ryd( 3d)     0.00151       2.11450
 
    62    O    4  S      Cor( 1S)     1.99978     -19.11522
    63    O    4  S      Val( 2S)     1.68039      -1.00916
    64    O    4  S      Ryd( 3S)     0.00171       1.38721
    65    O    4  S      Ryd( 4S)     0.00060       1.52458
    66    O    4  S      Ryd( 5S)     0.00003       4.00914
    67    O    4  px     Val( 2p)     1.69228      -0.39833
    68    O    4  px     Ryd( 3p)     0.00399       0.83513
    69    O    4  px     Ryd( 4p)     0.00059       1.20563
    70    O    4  py     Val( 2p)     1.63941      -0.43033
    71    O    4  py     Ryd( 3p)     0.00278       0.99499
    72    O    4  py     Ryd( 4p)     0.00060       1.21965
    73    O    4  pz     Val( 2p)     1.83377      -0.42061
    74    O    4  pz     Ryd( 3p)     0.00324       0.64384
    75    O    4  pz     Ryd( 4p)     0.00041       1.15512
    76    O    4  dxy    Ryd( 3d)     0.00101       2.37906
    77    O    4  dxz    Ryd( 3d)     0.00142       2.14638
    78    O    4  dyz    Ryd( 3d)     0.00094       2.39041
    79    O    4  dx2y2  Ryd( 3d)     0.00061       2.35318
    80    O    4  dz2    Ryd( 3d)     0.00151       2.11450
 
    81    O    5  S      Cor( 1S)     1.99987     -19.01329
    82    O    5  S      Val( 2S)     1.82086      -1.04347
    83    O    5  S      Ryd( 3S)     0.00042       1.70742
    84    O    5  S      Ryd( 4S)     0.00024       2.11303
    85    O    5  S      Ryd( 5S)     0.00001       3.51227
    86    O    5  px     Val( 2p)     1.80324      -0.32901
    87    O    5  px     Ryd( 3p)     0.00063       0.71124
    88    O    5  px     Ryd( 4p)     0.00028       1.13561
    89    O    5  py     Val( 2p)     1.80324      -0.32902
    90    O    5  py     Ryd( 3p)     0.00063       0.71132
    91    O    5  py     Ryd( 4p)     0.00028       1.13558
    92    O    5  pz     Val( 2p)     1.65692      -0.39619
    93    O    5  pz     Ryd( 3p)     0.00050       0.63704
    94    O    5  pz     Ryd( 4p)     0.00049       1.43520
    95    O    5  dxy    Ryd( 3d)     0.00009       1.93130
    96    O    5  dxz    Ryd( 3d)     0.00559       2.09125
    97    O    5  dyz    Ryd( 3d)     0.00559       2.09126
    98    O    5  dx2y2  Ryd( 3d)     0.00009       1.93129
    99    O    5  dz2    Ryd( 3d)     0.01140       2.26973
 
   100    C    6  S      Cor( 1S)     1.99936     -10.24094
   101    C    6  S      Val( 2S)     1.04155      -0.28583
   102    C    6  S      Ryd( 4S)     0.00231       1.34281
   103    C    6  S      Ryd( 3S)     0.00040       0.69105
   104    C    6  S      Ryd( 5S)     0.00004       4.44469
   105    C    6  px     Val( 2p)     1.15676      -0.11653
   106    C    6  px     Ryd( 4p)     0.00157       0.76831
   107    C    6  px     Ryd( 3p)     0.00037       0.45922
   108    C    6  py     Val( 2p)     0.75264      -0.05620
   109    C    6  py     Ryd( 4p)     0.00221       0.73078
   110    C    6  py     Ryd( 3p)     0.00034       0.33516
   111    C    6  pz     Val( 2p)     1.17405      -0.11780
   112    C    6  pz     Ryd( 4p)     0.00235       0.77685
   113    C    6  pz     Ryd( 3p)     0.00039       0.41881
   114    C    6  dxy    Ryd( 3d)     0.00133       2.39068
   115    C    6  dxz    Ryd( 3d)     0.00045       2.25280
   116    C    6  dyz    Ryd( 3d)     0.00108       2.22061
   117    C    6  dx2y2  Ryd( 3d)     0.00149       2.32929
   118    C    6  dz2    Ryd( 3d)     0.00142       2.59215
 
   119    C    7  S      Cor( 1S)     1.99936     -10.24094
   120    C    7  S      Val( 2S)     1.04155      -0.28583
   121    C    7  S      Ryd( 4S)     0.00231       1.34281
   122    C    7  S      Ryd( 3S)     0.00040       0.69105
   123    C    7  S      Ryd( 5S)     0.00004       4.44470
   124    C    7  px     Val( 2p)     0.77429      -0.06063
   125    C    7  px     Ryd( 4p)     0.00182       0.74537
   126    C    7  px     Ryd( 3p)     0.00035       0.38725
   127    C    7  py     Val( 2p)     1.13518      -0.11211
   128    C    7  py     Ryd( 4p)     0.00196       0.75378
   129    C    7  py     Ryd( 3p)     0.00036       0.40717
   130    C    7  pz     Val( 2p)     1.17399      -0.11779
   131    C    7  pz     Ryd( 4p)     0.00235       0.77678
   132    C    7  pz     Ryd( 3p)     0.00039       0.41879
   133    C    7  dxy    Ryd( 3d)     0.00121       2.27303
   134    C    7  dxz    Ryd( 3d)     0.00112       2.23721
   135    C    7  dyz    Ryd( 3d)     0.00041       2.23624
   136    C    7  dx2y2  Ryd( 3d)     0.00161       2.44694
   137    C    7  dz2    Ryd( 3d)     0.00142       2.59208
 
   138    C    8  S      Cor( 1S)     1.99936     -10.24094
   139    C    8  S      Val( 2S)     1.04155      -0.28583
   140    C    8  S      Ryd( 4S)     0.00231       1.34281
   141    C    8  S      Ryd( 3S)     0.00040       0.69103
   142    C    8  S      Ryd( 5S)     0.00004       4.44471
   143    C    8  px     Val( 2p)     0.93309      -0.08194
   144    C    8  px     Ryd( 4p)     0.00228       0.73501
   145    C    8  px     Ryd( 3p)     0.00034       0.34518
   146    C    8  py     Val( 2p)     0.97642      -0.09081
   147    C    8  py     Ryd( 4p)     0.00150       0.76418
   148    C    8  py     Ryd( 3p)     0.00037       0.44927
   149    C    8  pz     Val( 2p)     1.17394      -0.11778
   150    C    8  pz     Ryd( 4p)     0.00235       0.77675
   151    C    8  pz     Ryd( 3p)     0.00039       0.41879
   152    C    8  dxy    Ryd( 3d)     0.00169       2.41630
   153    C    8  dxz    Ryd( 3d)     0.00072       2.22009
   154    C    8  dyz    Ryd( 3d)     0.00081       2.25339
   155    C    8  dx2y2  Ryd( 3d)     0.00113       2.30369
   156    C    8  dz2    Ryd( 3d)     0.00142       2.59205
 
   157    C    9  S      Cor( 1S)     1.99954     -10.16540
   158    C    9  S      Val( 2S)     1.11515      -0.29678
   159    C    9  S      Ryd( 4S)     0.00055       1.16042
   160    C    9  S      Ryd( 3S)     0.00023       0.85747
   161    C    9  S      Ryd( 5S)     0.00000       4.36026
   162    C    9  px     Val( 2p)     1.14842      -0.10273
   163    C    9  px     Ryd( 4p)     0.00114       0.68043
   164    C    9  px     Ryd( 3p)     0.00010       0.24468
   165    C    9  py     Val( 2p)     1.22921      -0.11417
   166    C    9  py     Ryd( 4p)     0.00209       0.75678
   167    C    9  py     Ryd( 3p)     0.00037       0.32193
   168    C    9  pz     Val( 2p)     1.23527      -0.11383
   169    C    9  pz     Ryd( 4p)     0.00117       0.72293
   170    C    9  pz     Ryd( 3p)     0.00010       0.29164
   171    C    9  dxy    Ryd( 3d)     0.00053       2.39772
   172    C    9  dxz    Ryd( 3d)     0.00036       2.25906
   173    C    9  dyz    Ryd( 3d)     0.00031       2.26633
   174    C    9  dx2y2  Ryd( 3d)     0.00061       2.42619
   175    C    9  dz2    Ryd( 3d)     0.00089       2.60368
 
   176    C   10  S      Cor( 1S)     1.99954     -10.16540
   177    C   10  S      Val( 2S)     1.11515      -0.29678
   178    C   10  S      Ryd( 4S)     0.00055       1.16041
   179    C   10  S      Ryd( 3S)     0.00023       0.85750
   180    C   10  S      Ryd( 5S)     0.00000       4.36027
   181    C   10  px     Val( 2p)     1.15370      -0.10448
   182    C   10  px     Ryd( 4p)     0.00194       0.71716
   183    C   10  px     Ryd( 3p)     0.00037       0.27931
   184    C   10  py     Val( 2p)     1.22397      -0.11243
   185    C   10  py     Ryd( 4p)     0.00128       0.72007
   186    C   10  py     Ryd( 3p)     0.00010       0.28732
   187    C   10  pz     Val( 2p)     1.23522      -0.11383
   188    C   10  pz     Ryd( 4p)     0.00117       0.72291
   189    C   10  pz     Ryd( 3p)     0.00010       0.29162
   190    C   10  dxy    Ryd( 3d)     0.00049       2.34442
   191    C   10  dxz    Ryd( 3d)     0.00039       2.28584
   192    C   10  dyz    Ryd( 3d)     0.00028       2.23962
   193    C   10  dx2y2  Ryd( 3d)     0.00065       2.47950
   194    C   10  dz2    Ryd( 3d)     0.00089       2.60358
 
   195    C   11  S      Cor( 1S)     1.99954     -10.16540
   196    C   11  S      Val( 2S)     1.11515      -0.29678
   197    C   11  S      Ryd( 4S)     0.00055       1.16046
   198    C   11  S      Ryd( 3S)     0.00023       0.85744
   199    C   11  S      Ryd( 5S)     0.00000       4.36027
   200    C   11  px     Val( 2p)     1.26431      -0.11814
   201    C   11  px     Ryd( 4p)     0.00176       0.75821
   202    C   11  px     Ryd( 3p)     0.00023       0.32590
   203    C   11  py     Val( 2p)     1.11339      -0.09877
   204    C   11  py     Ryd( 4p)     0.00146       0.67902
   205    C   11  py     Ryd( 3p)     0.00024       0.24073
   206    C   11  pz     Val( 2p)     1.23520      -0.11382
   207    C   11  pz     Ryd( 4p)     0.00117       0.72290
   208    C   11  pz     Ryd( 3p)     0.00010       0.29161
   209    C   11  dxy    Ryd( 3d)     0.00069       2.49375
   210    C   11  dxz    Ryd( 3d)     0.00026       2.24323
   211    C   11  dyz    Ryd( 3d)     0.00041       2.28229
   212    C   11  dx2y2  Ryd( 3d)     0.00045       2.33017
   213    C   11  dz2    Ryd( 3d)     0.00089       2.60353
 
   214    H   12  S      Val( 1S)     0.76707       0.08078
   215    H   12  S      Ryd( 2S)     0.00120       0.80307
   216    H   12  px     Ryd( 2p)     0.00039       2.91666
   217    H   12  py     Ryd( 2p)     0.00017       2.61861
   218    H   12  pz     Ryd( 2p)     0.00010       2.49719
 
   219    H   13  S      Val( 1S)     0.75412       0.09296
   220    H   13  S      Ryd( 2S)     0.00083       0.80091
   221    H   13  px     Ryd( 2p)     0.00009       2.46893
   222    H   13  py     Ryd( 2p)     0.00010       2.43377
   223    H   13  pz     Ryd( 2p)     0.00049       3.13773
 
   224    H   14  S      Val( 1S)     0.76707       0.08077
   225    H   14  S      Ryd( 2S)     0.00120       0.80308
   226    H   14  px     Ryd( 2p)     0.00010       2.43365
   227    H   14  py     Ryd( 2p)     0.00046       3.10174
   228    H   14  pz     Ryd( 2p)     0.00010       2.49705
 
   229    H   15  S      Val( 1S)     0.75412       0.09296
   230    H   15  S      Ryd( 2S)     0.00083       0.80089
   231    H   15  px     Ryd( 2p)     0.00011       2.43797
   232    H   15  py     Ryd( 2p)     0.00008       2.46481
   233    H   15  pz     Ryd( 2p)     0.00049       3.13766
 
   234    H   16  S      Val( 1S)     0.76707       0.08077
   235    H   16  S      Ryd( 2S)     0.00121       0.80309
   236    H   16  px     Ryd( 2p)     0.00035       2.95257
   237    H   16  py     Ryd( 2p)     0.00021       2.58288
   238    H   16  pz     Ryd( 2p)     0.00010       2.49698
 
   239    H   17  S      Val( 1S)     0.75413       0.09296
   240    H   17  S      Ryd( 2S)     0.00083       0.80089
   241    H   17  px     Ryd( 2p)     0.00008       2.44720
   242    H   17  py     Ryd( 2p)     0.00011       2.45563
   243    H   17  pz     Ryd( 2p)     0.00049       3.13763
 
   244    H   18  S      Val( 1S)     0.74633       0.09322
   245    H   18  S      Ryd( 2S)     0.00018       0.75457
   246    H   18  px     Ryd( 2p)     0.00009       2.40858
   247    H   18  py     Ryd( 2p)     0.00038       3.05396
   248    H   18  pz     Ryd( 2p)     0.00011       2.48063
 
   249    H   19  S      Val( 1S)     0.74610       0.10309
   250    H   19  S      Ryd( 2S)     0.00076       0.77639
   251    H   19  px     Ryd( 2p)     0.00031       2.90409
   252    H   19  py     Ryd( 2p)     0.00017       2.60963
   253    H   19  pz     Ryd( 2p)     0.00008       2.45208
 
   254    H   20  S      Val( 1S)     0.74472       0.10483
   255    H   20  S      Ryd( 2S)     0.00065       0.77491
   256    H   20  px     Ryd( 2p)     0.00007       2.40391
   257    H   20  py     Ryd( 2p)     0.00008       2.43808
   258    H   20  pz     Ryd( 2p)     0.00040       3.12946
 
   259    H   21  S      Val( 1S)     0.74633       0.09322
   260    H   21  S      Ryd( 2S)     0.00018       0.75457
   261    H   21  px     Ryd( 2p)     0.00035       2.95594
   262    H   21  py     Ryd( 2p)     0.00012       2.50655
   263    H   21  pz     Ryd( 2p)     0.00011       2.48067
 
   264    H   22  S      Val( 1S)     0.74610       0.10309
   265    H   22  S      Ryd( 2S)     0.00076       0.77639
   266    H   22  px     Ryd( 2p)     0.00009       2.42025
   267    H   22  py     Ryd( 2p)     0.00038       3.09364
   268    H   22  pz     Ryd( 2p)     0.00008       2.45191
 
   269    H   23  S      Val( 1S)     0.74471       0.10483
   270    H   23  S      Ryd( 2S)     0.00065       0.77491
   271    H   23  px     Ryd( 2p)     0.00009       2.42271
   272    H   23  py     Ryd( 2p)     0.00007       2.41936
   273    H   23  pz     Ryd( 2p)     0.00040       3.12939
 
   274    H   24  S      Val( 1S)     0.74633       0.09322
   275    H   24  S      Ryd( 2S)     0.00018       0.75457
   276    H   24  px     Ryd( 2p)     0.00027       2.82918
   277    H   24  py     Ryd( 2p)     0.00020       2.63327
   278    H   24  pz     Ryd( 2p)     0.00011       2.48071
 
   279    H   25  S      Val( 1S)     0.74610       0.10309
   280    H   25  S      Ryd( 2S)     0.00076       0.77639
   281    H   25  px     Ryd( 2p)     0.00031       2.94626
   282    H   25  py     Ryd( 2p)     0.00016       2.56772
   283    H   25  pz     Ryd( 2p)     0.00008       2.45182
 
   284    H   26  S      Val( 1S)     0.74471       0.10483
   285    H   26  S      Ryd( 2S)     0.00065       0.77491
   286    H   26  px     Ryd( 2p)     0.00007       2.43643
   287    H   26  py     Ryd( 2p)     0.00008       2.40568
   288    H   26  pz     Ryd( 2p)     0.00040       3.12936

 WARNING:  Population inversion found on atom  P    1
           Population inversion found on atom  C    6
           Population inversion found on atom  C    7
           Population inversion found on atom  C    8
           Population inversion found on atom  C    9
           Population inversion found on atom  C   10
           Population inversion found on atom  C   11


 Summary of Natural Population Analysis:                  
                                                          
                                       Natural Population 
                Natural  -----------------------------------------------
    Atom  No    Charge         Core      Valence    Rydberg      Total
 -----------------------------------------------------------------------
      P    1    2.62904      9.99867     2.23750    0.13479    12.37096
      O    2   -0.86509      1.99978     6.84586    0.01945     8.86509
      O    3   -0.86509      1.99978     6.84585    0.01945     8.86509
      O    4   -0.86509      1.99978     6.84586    0.01945     8.86509
      O    5   -1.11039      1.99987     7.08427    0.02626     9.11039
      C    6   -0.14011      1.99936     4.12500    0.01575     6.14011
      C    7   -0.14012      1.99936     4.12501    0.01575     6.14012
      C    8   -0.14012      1.99936     4.12501    0.01575     6.14012
      C    9   -0.73603      1.99954     4.72804    0.00845     6.73603
      C   10   -0.73603      1.99954     4.72805    0.00845     6.73603
      C   11   -0.73603      1.99954     4.72805    0.00845     6.73603
      H   12    0.23106      0.00000     0.76707    0.00187     0.76894
      H   13    0.24437      0.00000     0.75412    0.00151     0.75563
      H   14    0.23106      0.00000     0.76707    0.00187     0.76894
      H   15    0.24437      0.00000     0.75412    0.00151     0.75563
      H   16    0.23106      0.00000     0.76707    0.00187     0.76894
      H   17    0.24437      0.00000     0.75413    0.00150     0.75563
      H   18    0.25291      0.00000     0.74633    0.00076     0.74709
      H   19    0.25258      0.00000     0.74610    0.00132     0.74742
      H   20    0.25409      0.00000     0.74472    0.00120     0.74591
      H   21    0.25291      0.00000     0.74633    0.00076     0.74709
      H   22    0.25258      0.00000     0.74610    0.00132     0.74742
      H   23    0.25409      0.00000     0.74471    0.00120     0.74591
      H   24    0.25291      0.00000     0.74633    0.00076     0.74709
      H   25    0.25259      0.00000     0.74610    0.00132     0.74741
      H   26    0.25409      0.00000     0.74471    0.00120     0.74591
 =======================================================================
   * Total *    0.00000     29.99458    67.69348    0.31195    98.00000

                                 Natural Population      
 --------------------------------------------------------
   Core                      29.99458 ( 99.9819% of  30)
   Valence                   67.69348 ( 99.5492% of  68)
   Natural Minimal Basis     97.68805 ( 99.6817% of  98)
   Natural Rydberg Basis      0.31195 (  0.3183% of  98)
 --------------------------------------------------------

    Atom  No          Natural Electron Configuration
[...]
 90,0.00008706,0.00003112,0.00001526,-0.00026552,0.00004119,-0.00002106
 ,-0.23150698,0.11531048,-0.05438907,0.00000066,0.00003234,0.00000301,0
 .00005835,-0.00000911,-0.00000581,-0.00318942,-0.00304237,0.00308424,0
 .00117837,-0.00002747,-0.00003592,-0.00001844,-0.00002051,0.00000020,-
 0.00000902,0.00001108,-0.00000052,0.00006491,-0.00003653,-0.00002295,0
 .00001305,-0.00000246,0.00001091,0.00478133,-0.00327991,0.00165147,0.2
 5244216,-0.00093721,-0.00021075,0.00048293,0.00123230,0.00228785,-0.00
 033263,0.00030849,-0.00002412,-0.00003361,0.00009842,0.00022028,-0.000
 03122,0.00017048,0.00002423,-0.00022558,-0.01427655,0.00645670,-0.0037
 3808,-0.00003536,-0.00004671,0.00003511,-0.00001076,-0.00008103,0.0000
 4949,0.11782447,-0.12152944,0.03414111,0.00001482,0.00001337,-0.000008
 40,0.00001686,0.00000504,-0.00001513,-0.00285438,-0.00067705,0.0011536
 5,0.00076059,0.00035020,-0.00054966,-0.00000206,0.00000164,-0.00000007
 ,0.00000325,0.00000610,-0.00000632,0.00002778,-0.00001812,-0.00001224,
 0.00000471,0.00000881,-0.00000626,0.02525772,-0.01362360,0.00843248,-0
 .12591896,0.12692491,-0.00004263,-0.00030442,0.00028220,-0.00142358,-0
 .00037822,-0.00005483,0.00004204,0.00009216,-0.00001740,0.00006156,-0.
 00000394,-0.00006609,-0.00010303,0.00000022,-0.00016266,0.01457487,-0.
 00975692,0.00373506,-0.00006536,-0.00000216,0.00002254,-0.00006005,-0.
 00003001,0.00002836,-0.05543304,0.03543320,-0.06605180,0.00000332,-0.0
 0000612,-0.00000753,0.00001051,0.00000476,-0.00000431,0.00281974,0.001
 95415,-0.00054755,-0.00016672,-0.00089954,0.00053715,0.00001292,0.0000
 0724,-0.00000467,0.00000560,-0.00000348,-0.00000191,0.00001660,-0.0000
 0829,0.00003381,0.00002480,0.00002061,-0.00001120,0.00965120,-0.005063
 10,0.00162912,0.05668805,-0.03856752,0.06635130,0.00002956,0.00025264,
 0.00088627,0.00149957,0.00178609,-0.00162117,0.00000601,0.00009177,-0.
 00017326,0.00001414,0.00001687,-0.00010804,-0.00009980,-0.00040867,-0.
 00031901,0.00288105,0.00014333,0.03171874,-0.00000232,-0.00001182,0.00
 002800,-0.00000087,0.00000689,0.00001541,-0.05294038,0.00044795,-0.033
 29762,0.00000938,-0.00000002,-0.00000244,0.00000068,0.00000264,-0.0000
 0841,0.00120911,0.00067701,-0.00020818,-0.00431754,-0.00298721,0.00187
 855,0.00000098,0.00000452,-0.00000085,0.00001898,0.00000485,-0.0000106
 7,-0.00000149,-0.00000045,-0.00002130,-0.00001612,0.00000521,0.0000019
 7,-0.00167740,0.00059791,-0.00326334,-0.00197628,-0.00169397,-0.026608
 83,0.05537076,-0.00065910,-0.00021616,0.00089626,0.00129869,0.00159860
 ,-0.00026787,0.00032106,0.00002883,-0.00011038,0.00005938,0.00014365,-
 0.00015503,0.00004232,-0.00016464,-0.00039930,0.00083523,-0.00150251,0
 .01522434,-0.00008420,-0.00003253,0.00005449,0.00003746,-0.00006842,0.
 00004996,0.00135042,-0.04812875,-0.00065584,0.00001585,0.00001942,-0.0
 0000318,-0.00000372,0.00000665,0.00000169,0.00041304,0.00010875,-0.000
 89394,-0.00252571,-0.00044219,0.00103206,0.00000832,0.00000232,-0.0000
 0129,0.00001791,0.00000635,-0.00001285,0.00001299,-0.00000066,0.000026
 99,0.00000521,0.00002285,-0.00001529,-0.00310077,0.00197688,-0.0310602
 7,0.00088865,-0.00009301,0.01750835,0.00106412,0.04675063,-0.00036850,
 -0.00049453,-0.00046727,-0.00038763,0.00047108,0.00167342,0.00016122,0
 .00002744,0.00013914,-0.00004457,0.00023970,0.00013435,0.00010235,0.00
 024022,0.00030648,-0.00212021,-0.00121181,-0.01551736,-0.00006603,-0.0
 0003288,-0.00000198,0.00007791,-0.00004011,-0.00000189,-0.03074420,0.0
 0088782,-0.31832366,0.00000323,0.00000006,-0.00000779,-0.00000659,0.00
 000175,-0.00000880,0.00023542,-0.00014071,0.00074271,0.00277114,0.0008
 8561,0.00056158,0.00000741,0.00000748,-0.00000140,-0.00000833,-0.00000
 511,0.00000608,-0.00000998,-0.00000291,-0.00002581,-0.00001222,-0.0000
 1602,0.00000587,-0.00084932,0.00115162,-0.00743409,0.00013712,-0.00078
 038,-0.00568643,0.03111148,-0.00120548,0.34388525,0.00180080,-0.000954
 34,0.00141000,-0.00072750,-0.00039719,-0.00006600,-0.00694322,0.003007
 86,-0.00331333,-0.00063771,0.00073554,-0.00011010,-0.00025705,0.000188
 93,-0.00063566,0.00003459,0.00033226,0.00011398,-0.01661354,-0.0129832
 8,0.01098757,0.00024563,-0.00015422,0.00014748,0.00000003,-0.00004276,
 -0.00002938,-0.25387392,-0.08757178,0.07306290,-0.00006760,0.00001583,
 -0.00002527,0.00001772,-0.00000603,-0.00000619,-0.00000675,-0.00002481
 ,-0.00002049,0.00049371,0.00056388,0.00038863,0.00047882,-0.00029828,-
 0.00056596,-0.00003347,0.00001711,-0.00001085,-0.00002672,0.00000924,-
 0.00002269,-0.00001640,-0.00002513,0.00000512,-0.00000352,0.00000942,0
 .00000372,0.00000256,0.00000940,0.00000541,0.27562959,0.00013133,0.000
 57842,-0.00035966,0.00046752,0.00024646,-0.00000176,0.00492393,-0.0005
 2999,0.00156492,0.00002039,-0.00013554,0.00000248,0.00000872,-0.000088
 52,0.00016665,0.00007884,-0.00022782,-0.00002532,0.01229363,0.00593741
 ,-0.00706857,-0.00002353,-0.00000298,-0.00000205,-0.00001493,0.0000481
 1,0.00000880,-0.08949931,-0.08705710,0.03345198,0.00001604,0.00000385,
 0.00000447,-0.00000766,0.00004593,-0.00000087,-0.00000748,0.00002246,0
 .00000622,-0.00059743,0.00004487,-0.00057610,-0.00053503,0.00048133,-0
 .00005421,-0.00000382,0.00000115,-0.00000003,0.00000629,-0.00000079,0.
 00000211,0.00001093,0.00000683,-0.00000343,-0.00001577,-0.00000337,0.0
 0000200,0.00000490,-0.00000507,-0.00000234,0.09638925,0.08963957,0.000
 03183,-0.00021102,0.00086619,-0.00035182,-0.00020286,-0.00005094,-0.00
 447481,0.00137761,-0.00055406,-0.00018891,0.00018806,-0.00007947,0.000
 11228,0.00003233,-0.00013241,-0.00004001,0.00012292,0.00002964,-0.0109
 1194,-0.00742897,0.00394533,0.00003289,0.00001679,0.00003059,0.0000018
 9,-0.00002228,-0.00001812,0.07472357,0.03353194,-0.07494228,-0.0000153
 8,0.00000611,-0.00001553,0.00001767,-0.00001579,-0.00001161,0.00000103
 ,-0.00001719,-0.00000353,0.00047534,-0.00010895,0.00042556,0.00051784,
 -0.00051451,-0.00005055,-0.00000574,-0.00000003,-0.00000310,-0.0000072
 5,0.00000479,-0.00000326,-0.00000660,-0.00000587,0.00000492,0.00000482
 ,0.00000100,0.00000283,-0.00000482,0.00000110,0.00000375,-0.08033457,-
 0.03668475,0.07634947,-0.00039926,0.00105678,-0.00044472,0.00014019,-0
 .00013507,0.00004861,0.00287411,-0.00112899,0.00055837,0.00010583,-0.0
 0043644,0.00001652,0.00005613,-0.00026684,0.00021109,-0.00011407,0.000
 09792,-0.00003266,-0.00051769,0.02813713,0.00652641,-0.00001558,-0.000
 02317,-0.00003831,0.00002169,-0.00003801,0.00001604,-0.04807547,-0.011
 92812,-0.00238682,0.00003069,0.00000240,0.00000582,-0.00000091,-0.0000
 6562,0.00002210,0.00001089,-0.00000600,0.,-0.00385080,0.00246329,-0.00
 254165,0.00087239,-0.00093464,0.00049274,-0.00001308,0.00000506,0.,0.0
 0000864,0.00000685,0.00000580,-0.00000323,0.00000588,0.00000041,0.0000
 2415,0.00000161,-0.00000670,-0.00000425,0.00000209,-0.00000381,0.00050
 915,-0.02770846,-0.00811024,0.04926635,-0.00061371,-0.00041559,-0.0001
 9706,0.00023572,0.00028186,-0.00002141,0.00020090,0.00210657,-0.000297
 58,0.00008382,0.00019670,0.00003860,0.00011486,0.00019089,0.00008612,0
 .00004612,-0.00023122,-0.00004266,-0.00222986,-0.01757530,-0.00382691,
 -0.00008952,0.00005502,-0.00000396,-0.00001191,0.00004150,0.00000249,-
 0.00940105,-0.30499471,-0.06405028,-0.00001519,-0.00001647,0.00000671,
 -0.00000136,0.00004788,-0.00001384,0.00000123,0.00001090,0.00001250,0.
 00265298,-0.00000685,0.00209649,-0.00014308,0.00065451,0.00024448,0.00
 002343,-0.00000361,0.00000018,-0.00000104,-0.00001139,0.00000268,0.000
 01120,0.00001003,-0.00000101,-0.00001566,-0.00000487,0.00000097,0.0000
 0300,-0.00000770,0.00000025,0.00079917,-0.00932297,-0.00278399,0.00861
 590,0.33014278,0.00028414,0.00011694,0.00027891,-0.00002641,0.00005555
 ,-0.00006578,0.00105470,-0.00104480,-0.00004630,-0.00010033,-0.0000103
 4,-0.00001699,0.00005088,-0.00008955,-0.00016153,0.00005597,-0.0000373
 7,0.00002828,0.00115412,0.01752175,0.00372360,0.00003440,-0.00005542,0
 .00002237,-0.00000939,0.00000681,-0.00000433,-0.00298096,-0.06560219,-
 0.06591073,0.00000373,0.00000589,-0.00000751,-0.00000121,0.00001849,0.
 00003365,-0.00003018,0.00001117,-0.00001123,-0.00310454,0.00146635,-0.
 00055113,0.00085937,0.00030665,0.00053657,-0.00001273,0.00000756,-0.00
 000465,0.00000026,0.00000657,-0.00000188,0.00000223,-0.00000181,0.0000
 0371,-0.00000745,0.00000211,-0.00000231,0.00001195,-0.00000297,-0.0000
 0822,-0.00043613,0.01088804,0.00163425,0.00506398,0.06824366,0.0662048
 1,-0.00033180,0.00045190,-0.00121945,0.00014451,0.00001585,0.00018820,
 0.00291295,-0.00049193,0.00104728,0.00020203,-0.00020852,0.00018217,-0
 .00030684,-0.00016194,0.00050542,-0.00003232,-0.00005572,-0.00005104,0
 .00001807,-0.00250265,-0.02904047,-0.00006665,0.00004714,-0.00006122,0
 .00000471,0.00000607,0.00000278,-0.04861724,0.00120420,0.01724849,0.00
 002377,-0.00000753,0.00000398,0.00000467,-0.00000929,-0.00001271,0.000
 01765,0.00001426,0.00001226,0.00085110,-0.00061459,0.00087605,-0.00379
 931,0.00282689,-0.00183468,0.00000752,-0.00000453,0.00000153,0.0000194
 2,-0.00001769,0.00001650,0.00000259,0.00000734,0.00000099,0.00000503,-
 0.00000238,0.00000069,-0.00001016,-0.00000695,0.00000562,-0.00002124,0
 .00406587,0.02853172,-0.00091557,-0.00027406,-0.00186096,0.04989723,-0
 .00045984,0.00014359,0.00031902,0.00005787,0.00001329,-0.00001585,-0.0
 0097199,0.00019384,-0.00127189,0.00002106,-0.00016658,-0.00009468,0.00
 028871,0.00004269,-0.00007638,-0.00002502,-0.00003702,-0.00001169,-0.0
 0179786,0.00138391,0.01984260,-0.00002519,0.00003166,-0.00000293,-0.00
 000031,0.00000263,-0.00000811,0.00210723,-0.05256376,-0.02862790,0.000
 00829,0.00000505,-0.00000054,0.00000395,-0.00000659,-0.00003200,0.0000
 1431,-0.00001090,0.00000936,-0.00087929,0.00046270,0.00026803,0.003290
 04,-0.00096367,0.00111355,-0.00000073,-0.00000425,-0.00000009,-0.00000
 462,0.00000596,-0.00000283,0.00000115,0.00000363,-0.00000066,0.0000026
 5,-0.00000238,0.00000458,-0.00000839,0.00000094,0.00000586,0.00034880,
 0.00033041,0.01270532,0.00230584,-0.00117326,-0.03180734,-0.00427818,0
 .05232168,0.00061246,-0.00007161,-0.00046765,-0.00018519,-0.00015823,0
 .00013441,-0.00021030,-0.00057597,0.00167600,-0.00010457,0.00012576,0.
 00013933,-0.00025938,-0.00003147,0.00030680,-0.00000417,0.00008745,-0.
 00000195,0.00211341,-0.00123093,-0.01552759,0.00006152,-0.00004081,-0.
 00000203,0.00000178,-0.00000660,-0.00000875,0.01463496,-0.02719996,-0.
 31855333,-0.00000161,0.00000274,-0.00000779,0.00000750,-0.00000721,-0.
 00002580,0.00002000,-0.00000254,0.00000587,0.00000065,0.00027608,0.000
 74131,-0.00215553,0.00195938,0.00056070,-0.00001022,0.00000270,-0.0000
 0142,0.00000863,-0.00000467,0.00000610,-0.00000405,-0.00000429,0.00000
 018,0.00000015,0.00000059,0.00000317,-0.00000924,-0.00000032,0.0000113
 2,-0.00056287,-0.00131726,-0.00743651,0.00059902,0.00050751,-0.0056772
 4,-0.01454607,0.02768529,0.34411799,0.00052930,-0.00086921,-0.00039429
 ,0.00006611,0.00038670,0.00005294,0.00003291,-0.00002769,0.00003435,0.
 00129988,-0.00016657,0.00030088,-0.00004529,0.00011425,0.00017375,-0.0
 0001787,-0.00012906,-0.00007211,0.00001597,-0.00008987,-0.00003514,0.0
 0001697,-0.00269167,0.00062450,-0.00000017,0.00002296,0.00000879,0.000
 01107,0.00002129,0.00000708,-0.20536330,0.11741407,-0.06553439,-0.0000
 0172,0.00002225,0.00000547,-0.00000052,0.00000881,0.00000951,0.0000330
 5,0.00001654,0.00000388,0.00000117,0.00001211,0.00000487,0.00014319,0.
 00040112,0.00030683,0.00011966,0.00032559,0.00032914,0.00000713,0.0000
 1153,-0.00000178,-0.00000065,-0.00000736,-0.00000270,-0.00000030,-0.00
 000566,-0.00000170,-0.00000516,-0.00000440,0.00000042,-0.00000614,0.00
 001423,-0.00000360,0.00000302,-0.00000462,-0.00000071,0.21953798,0.000
 21989,0.00185779,0.00140904,-0.00032937,-0.00084243,-0.00009763,0.0008
 4055,-0.00051706,-0.00005649,0.00175293,-0.00881146,-0.00366852,-0.000
 06717,-0.00030125,-0.00063661,0.00000205,0.00026156,0.00012932,-0.0003
 4454,-0.00020987,0.00011190,0.02259210,-0.01066705,0.01306055,0.000023
 10,-0.00006387,-0.00002419,0.00004938,0.00003723,-0.00002998,0.1155051
 1,-0.13541509,0.04652395,0.00000115,-0.00003081,-0.00000942,0.00000582
 ,-0.00002701,-0.00002077,0.00001473,0.00003091,-0.00000490,0.00002953,
 0.00001464,-0.00002095,-0.00077287,0.00039989,0.00062498,0.00009191,0.
 00086097,-0.00045750,-0.00002465,-0.00001684,0.00000866,-0.00001281,0.
 00000756,-0.00000098,0.00000051,0.00000659,0.00000568,0.00003185,-0.00
 000452,0.00000621,-0.00001105,-0.00000066,0.00000221,-0.00000919,-0.00
 000555,0.00000587,-0.12869134,0.14554943,0.00016751,0.00013541,0.00086
 976,-0.00006875,-0.00025896,-0.00007982,0.00035319,-0.00020436,-0.0000
 5110,0.00104553,-0.00458078,-0.00056261,-0.00008458,0.00008091,-0.0001
 3386,-0.00003102,0.00002049,0.00003085,-0.00008696,-0.00009643,0.00002
 985,0.01189397,-0.00574097,0.00396228,0.00000242,-0.00001649,-0.000015
 58,0.00001842,0.00001282,-0.00001820,-0.06642619,0.04792400,-0.0749492
 4,0.00000290,-0.00000502,-0.00000312,-0.00000051,-0.00000870,-0.000003
 26,0.00000479,0.00002326,-0.00001161,0.00001442,0.00000952,-0.00000356
 ,-0.00014589,0.00046506,0.00042484,0.00018740,0.00071862,-0.00004546,-
 0.00000559,-0.00000274,0.00000494,-0.00000113,0.00000016,0.00000373,-0
 .00000107,-0.00000051,0.00000019,0.00000845,-0.00000280,0.00000495,-0.
 00000330,0.00000369,0.00000283,0.00000144,-0.00000472,0.00000376,0.071
 96424,-0.05121836,0.07635690,-0.00022005,0.00071873,0.00039409,0.00002
 124,-0.00013325,-0.00004176,0.00029126,-0.00014973,-0.00000565,0.00190
 235,-0.00077624,-0.00002472,0.00009149,-0.00009472,-0.00018048,-0.0000
 1150,0.00009196,0.00002264,-0.00013997,-0.00006109,0.00005334,-0.00205
 878,0.00131964,0.00005783,-0.00001024,-0.00000848,-0.00000874,0.000015
 02,0.00000807,-0.00001020,-0.24981789,-0.10721757,0.05659508,0.0000063
 5,-0.00001223,-0.00000015,-0.00000387,-0.00000617,-0.00000521,0.000006
 54,0.00000584,0.00000088,0.00000885,-0.00000237,-0.00001085,0.00124848
 ,0.00029922,-0.00054033,0.00024138,-0.00022116,-0.00045915,-0.00000060
 ,-0.00001105,-0.00000156,0.00000843,0.00000739,0.00000556,-0.00000067,
 0.00000565,0.00000043,0.00001417,-0.00000123,0.00000068,-0.00000374,-0
 .00000037,0.00000250,-0.00000465,-0.00000323,0.00000169,-0.01852869,-0
 .01179862,0.00645742,0.26718459,-0.00095315,-0.00059189,-0.00028780,0.
 00038711,0.00028062,-0.00000453,0.00022162,0.00013191,0.00005294,0.000
 56634,0.00308867,0.00063160,0.00028736,0.00015526,0.00013982,0.0000256
 9,0.00005087,-0.00003117,-0.00011276,-0.00020565,-0.00000683,-0.029062
 12,-0.01599660,0.00755398,-0.00002609,0.00002448,0.00000167,0.00003403
 ,0.00004814,0.00001260,-0.10472166,-0.10315621,0.02995588,0.00000615,-
 0.00002305,-0.00000010,-0.00001404,0.00000107,0.00000368,0.00007010,0.
 00004028,0.00002607,0.00000474,0.00001307,-0.00000619,0.00048997,-0.00
 510659,-0.00324663,0.00056856,0.00128141,0.00030335,0.00001422,-0.0000
 0620,-0.00000467,0.00002473,0.00001071,0.00000537,0.00000060,0.0000032
 6,-0.00000044,0.00000415,-0.00000730,0.00000088,-0.00001765,0.00002291
 ,-0.00000628,-0.00000232,-0.00000731,-0.00000343,0.01673611,0.00971048
 ,-0.00562573,0.11737773,0.11210484,-0.00024380,0.00018934,0.00027873,0
 .00005915,-0.00008165,-0.00001688,-0.00003426,-0.00005098,-0.00006564,
 0.00038239,0.00143569,-0.00004741,0.00005243,0.00008849,-0.00016162,0.
 00003083,0.00005762,0.00002240,0.00000398,0.00006678,0.00002834,-0.015
 75429,-0.00777072,0.00372200,-0.00000701,0.00000030,-0.00000751,-0.000
 00114,-0.00001141,-0.00000426,0.05824006,0.03021589,-0.06593342,-0.000
 00020,-0.00001484,-0.00000466,-0.00000582,-0.00000306,-0.00000188,-0.0
 0001535,-0.00001023,0.00003373,0.00000541,-0.00003176,-0.00001123,0.00
 028664,-0.00341965,-0.00055075,-0.00069539,0.00059012,0.00053504,-0.00
 000008,-0.00000422,0.00000282,0.00000421,0.00000531,-0.00000232,0.0000
 0362,-0.00000290,0.00000318,0.00000048,0.00000283,0.00000371,0.0000018
 6,-0.00000747,-0.00000233,-0.00000342,0.00001181,-0.00000823,-0.009210
 78,-0.00582180,0.00162434,-0.06156602,-0.02972458,0.06622935,0.0000217
 2,0.00066251,0.00033276,-0.00015545,-0.00022716,-0.00000901,0.00007802
 ,-0.00009622,-0.00008017,0.00023798,-0.00057438,0.00057831,0.00001005,
 -0.00010559,-0.00018606,0.00001656,0.00007313,0.00003309,-0.00007071,0
 .00000275,0.00003558,-0.00080942,0.00130644,-0.00265242,0.00001007,-0.
 00001623,-0.00000151,0.00000565,0.00000093,0.00000569,-0.05019440,-0.0
 0300308,0.01625537,-0.00000362,-0.00000568,-0.00000068,-0.00000035,-0.
 00000675,-0.00000579,-0.00000613,-0.00001014,0.00003398,0.00000861,-0.
 00001952,-0.00001422,-0.00008776,0.00033849,-0.00066941,0.00097573,-0.
 00053005,-0.00004593,-0.00000935,-0.00000249,0.00000335,-0.00000908,0.
 00000068,-0.00000854,0.00000481,-0.00000169,0.00000434,0.00000705,0.00
 000140,0.00000009,-0.00000044,-0.00000576,-0.00000433,-0.00000849,0.00
 000935,-0.00000788,0.00215240,0.00090099,-0.02526711,-0.00023948,-0.00
 190942,0.02846648,0.04806604,-0.00024885,-0.00021391,-0.00122213,0.000
 00241,0.00019331,0.00020589,-0.00005629,0.00008138,0.00017121,-0.00105
 430,0.00289031,0.00155703,0.00034562,-0.00027443,0.00047840,0.00000095
 ,-0.00005229,-0.00005195,0.00003422,0.00000191,-0.00003868,0.00203015,
 0.00222103,-0.03507804,-0.00000039,0.00001895,0.00000380,-0.00000566,0
 .00000160,0.00000654,-0.00210477,-0.05104682,0.02928540,-0.00000187,0.
 00000700,0.00000140,0.00000629,0.00002577,0.00001573,0.00000309,0.0000
 0408,0.00000505,-0.00001959,-0.00000184,0.00000600,0.00007209,0.001402
 34,0.00062216,-0.00006773,-0.00575675,-0.00215054,0.00000203,0.0000069
 0,0.00000361,-0.00000019,-0.00000294,-0.00000890,-0.00000026,-0.000014
 06,0.00000813,-0.00000486,-0.00000081,0.00000117,-0.00000072,0.0000030
 5,-0.00000169,0.00000796,-0.00000073,0.00000194,-0.00282009,-0.0018235
 7,0.01837263,0.00066327,-0.00186717,0.01429109,0.00321748,0.05419768,-
 0.00024570,0.00056769,-0.00047010,-0.00005663,-0.00015301,0.00013989,0
 .00022954,-0.00008101,0.00013469,0.00060288,0.00011022,0.00168158,0.00
 015764,-0.00020962,0.00030746,0.00000461,0.00007363,-0.00000207,-0.000
 07364,-0.00004725,-0.00000198,0.00002450,0.00243894,-0.01553123,-0.000
 00159,-0.00000275,-0.00000776,0.00000480,0.00000482,-0.00000878,0.0163
 0674,0.02632333,-0.31858968,0.00000276,-0.00001019,-0.00000141,-0.0000
 0028,0.00000984,0.00000610,0.00000238,0.00001008,-0.00002575,-0.000007
 85,0.00001864,0.00000591,-0.00023944,-0.00013543,0.00073948,-0.0006177
 6,-0.00285546,0.00055833,-0.00000471,-0.00000351,0.00000376,0.00000213
 ,0.00000317,-0.00000826,0.00000225,-0.00000783,0.00001134,0.00000573,-
 0.00000138,0.00000018,-0.00000058,-0.00000015,0.00000318,0.00000489,-0
 .00000781,0.00001135,0.00143057,0.00017975,-0.00744180,-0.00073731,0.0
 0026056,-0.00566547,-0.01679593,-0.02648527,0.34415105\\-0.00001534,0.
 00001551,0.00038405,-0.00007224,-0.00005504,0.00003164,0.00011132,-0.0
 0002156,0.00004280,-0.00001606,0.00006647,0.00003163,0.00000089,-0.000
 00238,-0.00049098,0.00001249,0.00000664,-0.00000134,-0.00000793,0.0000
 0360,-0.00000871,-0.00000637,-0.00000519,-0.00001107,-0.00000558,-0.00
 000387,-0.00000148,0.00000385,0.00000607,0.00000370,0.00000036,0.00000
 127,-0.00000663,-0.00001292,0.00000190,-0.00000396,-0.00000493,-0.0000
 0914,0.00000890,0.00000032,-0.00000850,-0.00000130,0.00000722,0.000001
 80,0.00000998,0.00000931,0.00000202,-0.00000247,-0.00000463,0.00000576
 ,0.00001254,0.00000125,0.00000237,0.00000031,0.00000570,-0.00000183,0.
 00000160,-0.00000103,0.00000037,-0.00000376,-0.00000589,-0.00000522,-0
 .00000004,0.00000090,0.00000236,0.00000034,-0.00000018,-0.00000182,-0.
 00000264,0.00000419,-0.00000406,0.00000713,-0.00000426,0.00000067,0.00
 000309,-0.00000046,0.00000181,-0.00000331\\\@
 The archive entry for this job was punched.


 K N O W I N G  IS A BARRIER WHICH PREVENTS LEARNING

                     -- TEACHING OF THE BENE GESSERIT
 Job cpu time:       0 days  1 hours  2 minutes 45.0 seconds.
 Elapsed time:       0 days  0 hours  3 minutes 56.8 seconds.
 File lengths (MBytes):  RWF=    214 Int=      0 D2E=      0 Chk=      7 Scr=      1
 Normal termination of Gaussian 16 at Wed Feb 26 10:26:34 2025.
