 Entering Gaussian System, Link 0=g09
 Initial command:
 /ihome/crc/build/g09/g09-D.01/TAR/g09/l1.exe "/scratch/slurm-1999364/Gau-7383.inp" -scrdir="/scratch/slurm-1999364/"
 Entering Link 1 = /ihome/crc/build/g09/g09-D.01/TAR/g09/l1.exe PID=      7384.
  
 Copyright (c) 1988,1990,1992,1993,1995,1998,2003,2009,2013,
            Gaussian, Inc.  All Rights Reserved.
  
 This is part of the Gaussian(R) 09 program.  It is based on
 the Gaussian(R) 03 system (copyright 2003, Gaussian, Inc.),
 the Gaussian(R) 98 system (copyright 1998, Gaussian, Inc.),
 the Gaussian(R) 94 system (copyright 1995, Gaussian, Inc.),
 the Gaussian 92(TM) system (copyright 1992, Gaussian, Inc.),
 the Gaussian 90(TM) system (copyright 1990, Gaussian, Inc.),
 the Gaussian 88(TM) system (copyright 1988, Gaussian, Inc.),
 the Gaussian 86(TM) system (copyright 1986, Carnegie Mellon
 University), and the Gaussian 82(TM) system (copyright 1983,
 Carnegie Mellon University). Gaussian is a federally registered
 trademark of Gaussian, Inc.
  
 This software contains proprietary and confidential information,
 including trade secrets, belonging to Gaussian, Inc.
  
 This software is provided under written license and may be
 used, copied, transmitted, or stored only in accord with that
 written license.
  
 The following legend is applicable only to US Government
 contracts under FAR:
  
                    RESTRICTED RIGHTS LEGEND
  
 Use, reproduction and disclosure by the US Government is
 subject to restrictions as set forth in subparagraphs (a)
 and (c) of the Commercial Computer Software - Restricted
 Rights clause in FAR 52.227-19.
  
 Gaussian, Inc.
 340 Quinnipiac St., Bldg. 40, Wallingford CT 06492
  
  
 ---------------------------------------------------------------
 Warning -- This program may not be used in any manner that
 competes with the business of Gaussian, Inc. or will provide
 assistance to any competitor of Gaussian, Inc.  The licensee
 of this program is prohibited from giving any competitor of
 Gaussian, Inc. access to this program.  By using this program,
 the user acknowledges that Gaussian, Inc. is engaged in the
 business of creating and licensing software in the field of
 computational chemistry and represents and warrants to the
 licensee that it is not a competitor of Gaussian, Inc. and that
 it will not use this program in any manner prohibited above.
 ---------------------------------------------------------------
  

 Cite this work as:
 Gaussian 09, Revision D.01,
 M. J. Frisch, G. W. Trucks, H. B. Schlegel, G. E. Scuseria, 
 M. A. Robb, J. R. Cheeseman, G. Scalmani, V. Barone, B. Mennucci, 
 G. A. Petersson, H. Nakatsuji, M. Caricato, X. Li, H. P. Hratchian, 
 A. F. Izmaylov, J. Bloino, G. Zheng, J. L. Sonnenberg, M. Hada, 
 M. Ehara, K. Toyota, R. Fukuda, J. Hasegawa, M. Ishida, T. Nakajima, 
 Y. Honda, O. Kitao, H. Nakai, T. Vreven, J. A. Montgomery, Jr., 
 J. E. Peralta, F. Ogliaro, M. Bearpark, J. J. Heyd, E. Brothers, 
 K. N. Kudin, V. N. Staroverov, T. Keith, R. Kobayashi, J. Normand, 
 K. Raghavachari, A. Rendell, J. C. Burant, S. S. Iyengar, J. Tomasi, 
 M. Cossi, N. Rega, J. M. Millam, M. Klene, J. E. Knox, J. B. Cross, 
 V. Bakken, C. Adamo, J. Jaramillo, R. Gomperts, R. E. Stratmann, 
 O. Yazyev, A. J. Austin, R. Cammi, C. Pomelli, J. W. Ochterski, 
 R. L. Martin, K. Morokuma, V. G. Zakrzewski, G. A. Voth, 
 P. Salvador, J. J. Dannenberg, S. Dapprich, A. D. Daniels, 
 O. Farkas, J. B. Foresman, J. V. Ortiz, J. Cioslowski, 
 and D. J. Fox, Gaussian, Inc., Wallingford CT, 2013.
 
 ******************************************
 Gaussian 09:  EM64L-G09RevD.01 24-Apr-2013
                26-Nov-2020 
 ******************************************
 %nprocshared=12
 Will use up to   12 processors via shared memory.
 %mem=200gb
 ----------------------------------------------------------------------
 # opt freq=noraman 6-311g(d,p) scrf=(cpcm,solvent=water) geom=connecti
 vity m062x temperature=373
 ----------------------------------------------------------------------
 1/14=-1,18=20,19=15,26=3,38=1,57=2,112=373000/1,3;
 2/9=110,12=2,17=6,18=5,40=1/2;
 3/5=4,6=6,7=101,11=2,16=1,25=1,30=1,70=2101,71=1,72=1,74=-55/1,2,3;
 4//1;
 5/5=2,38=5,53=1/2;
 6/7=2,8=2,9=2,10=2,28=1/1;
 7//1,2,3,16;
 1/14=-1,18=20,19=15,26=3/3(2);
 2/9=110/2;
 99//99;
 2/9=110/2;
 3/5=4,6=6,7=101,11=2,16=1,25=1,30=1,70=2105,71=1,72=1,74=-55/1,2,3;
 4/5=5,16=3,69=1/1;
 5/5=2,38=5,53=1/2;
 7//1,2,3,16;
 1/14=-1,18=20,19=15,26=3/3(-5);
 2/9=110/2;
 6/7=2,8=2,9=2,10=2,19=2,28=1/1;
 99/9=1/99;
 -------------------
 Title Card Required
 -------------------
 Symbolic Z-matrix:
 Charge =  0 Multiplicity = 1
 Si                    2.24389  -1.80202   1.61988 
 O                     2.45229  -0.2703    2.1291 
 O                     2.5256    1.75455   0.01872 
 O                     2.39868  -1.87772   0.00594 
 Si                    2.39101   1.66533  -1.59709 
 O                     2.41311   0.12718  -2.11173 
 O                     3.15883  -2.44959  -2.71119 
 H                     3.81869  -1.97875  -3.23587 
 O                     3.36861  -2.78171   2.33612 
 H                     4.27806  -2.62738   2.0718 
 O                     3.28982   2.23867   2.74715 
 H                     3.80356   1.70821   3.36966 
 O                     0.54193   1.95279   2.12992 
 O                     1.02843   2.4213   -2.07399 
 O                     3.69795   2.38747  -2.31047 
 H                     3.84467   3.30494  -2.07062 
 Si                   -0.87959   2.57566   1.67678 
 O                    -0.8839    2.97135   0.10848 
 O                    -1.28828   4.02324  -2.38047 
 H                    -0.99142   4.34867  -3.23929 
 O                    -1.26756   3.88338   2.60337 
 H                    -0.66299   4.62708   2.55299 
 Si                   -1.01327  -2.56285  -1.68279 
 O                     0.45265  -2.05912  -2.1454 
 O                    -1.05774  -2.89102  -0.10117 
 O                     0.80434  -2.38057   2.10119 
 O                    -1.42574  -3.86887   2.58168 
 H                    -0.80419  -4.28455   3.19321 
 O                    -1.48148  -3.87601  -2.56318 
 H                    -0.94138  -4.6629   -2.46279 
 Si                   -2.65844   0.05927  -1.66471 
 O                    -2.14856  -1.4392   -2.06755 
 O                    -2.98994   0.08361  -0.06581 
 Si                   -2.76445   0.10255   1.54625 
 O                    -1.8469   -1.1252    2.0401 
 O                    -4.27913   0.01576   2.18006 
 H                    -4.33783  -0.04749   3.13625 
 O                    -2.09462   1.52137   1.99942 
 O                    -4.03421   0.38343  -2.50252 
 H                    -4.77858  -0.20474  -2.35618 
 O                    -1.57388   1.17348  -2.06505 
 Al                   -0.81931  -2.4155    1.53327 
 Al                    2.0665    1.33003   1.61715 
 Al                    1.97731  -1.46056  -1.60436 
 Al                   -0.59807   2.48657  -1.51775 
 H                    -1.58183   4.76796  -1.83988 
 H                     3.11894   3.10538   3.13606 
 H                     2.85926  -3.22449  -3.20303 
 H                    -2.31895  -3.93645   2.94134 
 

 GradGradGradGradGradGradGradGradGradGradGradGradGradGradGradGradGradGrad
 Berny optimization.
 Initialization pass.
                           ----------------------------
                           !    Initial Parameters    !
                           ! (Angstroms and Degrees)  !
 --------------------------                            --------------------------
 ! Name  Definition              Value          Derivative Info.                !
 --------------------------------------------------------------------------------
 ! R1    R(1,2)                  1.6275         estimate D2E/DX2                !
 ! R2    R(1,4)                  1.6231         estimate D2E/DX2                !
 ! R3    R(1,9)                  1.6546         estimate D2E/DX2                !
 ! R4    R(1,26)                 1.6244         estimate D2E/DX2                !
 ! R5    R(2,43)                 1.7239         estimate D2E/DX2                !
 ! R6    R(3,5)                  1.6239         estimate D2E/DX2                !
 ! R7    R(3,43)                 1.7164         estimate D2E/DX2                !
 ! R8    R(4,44)                 1.716          estimate D2E/DX2                !
 ! R9    R(5,6)                  1.6221         estimate D2E/DX2                !
 ! R10   R(5,14)                 1.6296         estimate D2E/DX2                !
 ! R11   R(5,15)                 1.6548         estimate D2E/DX2                !
 ! R12   R(6,44)                 1.7229         estimate D2E/DX2                !
 ! R13   R(7,8)                  0.9656         estimate D2E/DX2                !
 ! R14   R(7,44)                 1.8972         estimate D2E/DX2                !
 ! R15   R(7,48)                 0.9655         estimate D2E/DX2                !
 ! R16   R(9,10)                 0.9596         estimate D2E/DX2                !
 ! R17   R(11,12)                0.9658         estimate D2E/DX2                !
 ! R18   R(11,43)                1.8971         estimate D2E/DX2                !
 ! R19   R(11,47)                0.9652         estimate D2E/DX2                !
 ! R20   R(13,17)                1.6168         estimate D2E/DX2                !
 ! R21   R(13,43)                1.7248         estimate D2E/DX2                !
 ! R22   R(14,45)                1.7202         estimate D2E/DX2                !
 ! R23   R(15,16)                0.9596         estimate D2E/DX2                !
 ! R24   R(17,18)                1.6174         estimate D2E/DX2                !
 ! R25   R(17,21)                1.649          estimate D2E/DX2                !
 ! R26   R(17,38)                1.6407         estimate D2E/DX2                !
 ! R27   R(18,45)                1.7209         estimate D2E/DX2                !
 ! R28   R(19,20)                0.9652         estimate D2E/DX2                !
 ! R29   R(19,45)                1.8926         estimate D2E/DX2                !
 ! R30   R(19,46)                0.9659         estimate D2E/DX2                !
 ! R31   R(21,22)                0.9598         estimate D2E/DX2                !
 ! R32   R(23,24)                1.6176         estimate D2E/DX2                !
 ! R33   R(23,25)                1.6159         estimate D2E/DX2                !
 ! R34   R(23,29)                1.6488         estimate D2E/DX2                !
 ! R35   R(23,32)                1.643          estimate D2E/DX2                !
 ! R36   R(24,44)                1.725          estimate D2E/DX2                !
 ! R37   R(25,42)                1.7188         estimate D2E/DX2                !
 ! R38   R(26,42)                1.7205         estimate D2E/DX2                !
 ! R39   R(27,28)                0.966          estimate D2E/DX2                !
 ! R40   R(27,42)                1.8919         estimate D2E/DX2                !
 ! R41   R(27,49)                0.9653         estimate D2E/DX2                !
 ! R42   R(29,30)                0.9597         estimate D2E/DX2                !
 ! R43   R(31,32)                1.6333         estimate D2E/DX2                !
 ! R44   R(31,33)                1.6331         estimate D2E/DX2                !
 ! R45   R(31,39)                1.6431         estimate D2E/DX2                !
 ! R46   R(31,41)                1.6056         estimate D2E/DX2                !
 ! R47   R(33,34)                1.6279         estimate D2E/DX2                !
 ! R48   R(34,35)                1.6103         estimate D2E/DX2                !
 ! R49   R(34,36)                1.6442         estimate D2E/DX2                !
 ! R50   R(34,38)                1.6331         estimate D2E/DX2                !
 ! R51   R(35,42)                1.7256         estimate D2E/DX2                !
 ! R52   R(36,37)                0.9601         estimate D2E/DX2                !
 ! R53   R(39,40)                0.9599         estimate D2E/DX2                !
 ! R54   R(41,45)                1.7251         estimate D2E/DX2                !
 ! A1    A(2,1,4)              110.0472         estimate D2E/DX2                !
 ! A2    A(2,1,9)              109.5578         estimate D2E/DX2                !
 ! A3    A(2,1,26)             110.852          estimate D2E/DX2                !
 ! A4    A(4,1,9)              109.7545         estimate D2E/DX2                !
 ! A5    A(4,1,26)             111.2556         estimate D2E/DX2                !
 ! A6    A(9,1,26)             105.2628         estimate D2E/DX2                !
 ! A7    A(1,2,43)             138.7701         estimate D2E/DX2                !
 ! A8    A(5,3,43)             152.9871         estimate D2E/DX2                !
 ! A9    A(1,4,44)             153.9419         estimate D2E/DX2                !
 ! A10   A(3,5,6)              111.5099         estimate D2E/DX2                !
 ! A11   A(3,5,14)             109.5737         estimate D2E/DX2                !
 ! A12   A(3,5,15)             109.8471         estimate D2E/DX2                !
 ! A13   A(6,5,14)             111.0046         estimate D2E/DX2                !
 ! A14   A(6,5,15)             105.4418         estimate D2E/DX2                !
 ! A15   A(14,5,15)            109.3762         estimate D2E/DX2                !
 ! A16   A(5,6,44)             140.9855         estimate D2E/DX2                !
 ! A17   A(8,7,44)             119.2348         estimate D2E/DX2                !
 ! A18   A(8,7,48)             109.0625         estimate D2E/DX2                !
 ! A19   A(44,7,48)            121.4924         estimate D2E/DX2                !
 ! A20   A(1,9,10)             115.4535         estimate D2E/DX2                !
 ! A21   A(12,11,43)           117.6355         estimate D2E/DX2                !
 ! A22   A(12,11,47)           109.1257         estimate D2E/DX2                !
 ! A23   A(43,11,47)           123.7738         estimate D2E/DX2                !
 ! A24   A(17,13,43)           146.3987         estimate D2E/DX2                !
 ! A25   A(5,14,45)            135.5255         estimate D2E/DX2                !
 ! A26   A(5,15,16)            115.4824         estimate D2E/DX2                !
 ! A27   A(13,17,18)           111.6136         estimate D2E/DX2                !
 ! A28   A(13,17,21)           110.7867         estimate D2E/DX2                !
 ! A29   A(13,17,38)           110.3916         estimate D2E/DX2                !
 ! A30   A(18,17,21)           110.4996         estimate D2E/DX2                !
 ! A31   A(18,17,38)           110.2367         estimate D2E/DX2                !
 ! A32   A(21,17,38)           102.9947         estimate D2E/DX2                !
 ! A33   A(17,18,45)           147.8802         estimate D2E/DX2                !
 ! A34   A(20,19,45)           124.5537         estimate D2E/DX2                !
 ! A35   A(20,19,46)           109.3597         estimate D2E/DX2                !
 ! A36   A(45,19,46)           118.7968         estimate D2E/DX2                !
 ! A37   A(17,21,22)           115.9006         estimate D2E/DX2                !
 ! A38   A(24,23,25)           111.5985         estimate D2E/DX2                !
 ! A39   A(24,23,29)           110.6489         estimate D2E/DX2                !
 ! A40   A(24,23,32)           110.2577         estimate D2E/DX2                !
 ! A41   A(25,23,29)           110.674          estimate D2E/DX2                !
 ! A42   A(25,23,32)           110.4313         estimate D2E/DX2                !
 ! A43   A(29,23,32)           102.9091         estimate D2E/DX2                !
 ! A44   A(23,24,44)           145.0184         estimate D2E/DX2                !
 ! A45   A(23,25,42)           150.5419         estimate D2E/DX2                !
 ! A46   A(1,26,42)            138.224          estimate D2E/DX2                !
 ! A47   A(28,27,42)           118.3695         estimate D2E/DX2                !
 ! A48   A(28,27,49)           109.2328         estimate D2E/DX2                !
 ! A49   A(42,27,49)           123.8406         estimate D2E/DX2                !
 ! A50   A(23,29,30)           115.9351         estimate D2E/DX2                !
 ! A51   A(32,31,33)           108.5738         estimate D2E/DX2                !
 ! A52   A(32,31,39)           108.4587         estimate D2E/DX2                !
 ! A53   A(32,31,41)           111.3643         estimate D2E/DX2                !
 ! A54   A(33,31,39)           109.0454         estimate D2E/DX2                !
 ! A55   A(33,31,41)           111.7707         estimate D2E/DX2                !
 ! A56   A(39,31,41)           107.5499         estimate D2E/DX2                !
 ! A57   A(23,32,31)           141.7559         estimate D2E/DX2                !
 ! A58   A(31,33,34)           160.3251         estimate D2E/DX2                !
 ! A59   A(33,34,35)           111.9476         estimate D2E/DX2                !
 ! A60   A(33,34,36)           104.686          estimate D2E/DX2                !
 ! A61   A(33,34,38)           109.9811         estimate D2E/DX2                !
 ! A62   A(35,34,36)           111.4961         estimate D2E/DX2                !
 ! A63   A(35,34,38)           110.0947         estimate D2E/DX2                !
 ! A64   A(36,34,38)           108.465          estimate D2E/DX2                !
 ! A65   A(34,35,42)           145.0176         estimate D2E/DX2                !
 ! A66   A(34,36,37)           116.3413         estimate D2E/DX2                !
 ! A67   A(17,38,34)           143.8459         estimate D2E/DX2                !
 ! A68   A(31,39,40)           116.7865         estimate D2E/DX2                !
 ! A69   A(31,41,45)           146.2215         estimate D2E/DX2                !
 ! A70   A(25,42,26)           116.7704         estimate D2E/DX2                !
 ! A71   A(25,42,27)           105.6619         estimate D2E/DX2                !
 ! A72   A(25,42,35)           113.8007         estimate D2E/DX2                !
 ! A73   A(26,42,27)            97.7686         estimate D2E/DX2                !
 ! A74   A(26,42,35)           116.7344         estimate D2E/DX2                !
 ! A75   A(27,42,35)           102.7547         estimate D2E/DX2                !
 ! A76   A(2,43,3)             116.5062         estimate D2E/DX2                !
 ! A77   A(2,43,11)             97.0901         estimate D2E/DX2                !
 ! A78   A(2,43,13)            116.4028         estimate D2E/DX2                !
 ! A79   A(3,43,11)            105.2934         estimate D2E/DX2                !
 ! A80   A(3,43,13)            115.0863         estimate D2E/DX2                !
 ! A81   A(11,43,13)           102.7066         estimate D2E/DX2                !
 ! A82   A(4,44,6)             115.9939         estimate D2E/DX2                !
 ! A83   A(4,44,7)             105.5344         estimate D2E/DX2                !
 ! A84   A(4,44,24)            115.278          estimate D2E/DX2                !
 ! A85   A(6,44,7)              98.69           estimate D2E/DX2                !
 ! A86   A(6,44,24)            116.807          estimate D2E/DX2                !
 ! A87   A(7,44,24)            100.753          estimate D2E/DX2                !
 ! A88   A(14,45,18)           118.2498         estimate D2E/DX2                !
 ! A89   A(14,45,19)           103.1927         estimate D2E/DX2                !
 ! A90   A(14,45,41)           113.7888         estimate D2E/DX2                !
 ! A91   A(18,45,19)            98.133          estimate D2E/DX2                !
 ! A92   A(18,45,41)           114.8526         estimate D2E/DX2                !
 ! A93   A(19,45,41)           105.4922         estimate D2E/DX2                !
 ! D1    D(4,1,2,43)            37.9155         estimate D2E/DX2                !
 ! D2    D(9,1,2,43)           158.6761         estimate D2E/DX2                !
 ! D3    D(26,1,2,43)          -85.5856         estimate D2E/DX2                !
 ! D4    D(2,1,4,44)           -59.138          estimate D2E/DX2                !
 ! D5    D(9,1,4,44)          -179.7803         estimate D2E/DX2                !
 ! D6    D(26,1,4,44)           64.1273         estimate D2E/DX2                !
 ! D7    D(2,1,9,10)           -67.1496         estimate D2E/DX2                !
 ! D8    D(4,1,9,10)            53.7884         estimate D2E/DX2                !
 ! D9    D(26,1,9,10)          173.6084         estimate D2E/DX2                !
 ! D10   D(2,1,26,42)           87.9535         estimate D2E/DX2                !
 ! D11   D(4,1,26,42)          -34.8503         estimate D2E/DX2                !
 ! D12   D(9,1,26,42)         -153.6707         estimate D2E/DX2                !
 ! D13   D(1,2,43,3)           -52.3826         estimate D2E/DX2                !
 ! D14   D(1,2,43,11)         -163.4241         estimate D2E/DX2                !
 ! D15   D(1,2,43,13)           88.5638         estimate D2E/DX2                !
 ! D16   D(43,3,5,6)           -51.6677         estimate D2E/DX2                !
 ! D17   D(43,3,5,14)           71.6333         estimate D2E/DX2                !
 ! D18   D(43,3,5,15)         -168.1882         estimate D2E/DX2                !
 ! D19   D(5,3,43,2)            70.6657         estimate D2E/DX2                !
 ! D20   D(5,3,43,11)          176.8879         estimate D2E/DX2                !
 ! D21   D(5,3,43,13)          -70.7911         estimate D2E/DX2                !
 ! D22   D(1,4,44,6)            72.3446         estimate D2E/DX2                !
 ! D23   D(1,4,44,7)          -179.5958         estimate D2E/DX2                !
 ! D24   D(1,4,44,24)          -69.3883         estimate D2E/DX2                !
 ! D25   D(3,5,6,44)            30.1722         estimate D2E/DX2                !
 ! D26   D(14,5,6,44)          -92.3109         estimate D2E/DX2                !
 ! D27   D(15,5,6,44)          149.3459         estimate D2E/DX2                !
 ! D28   D(3,5,14,45)          -42.776          estimate D2E/DX2                !
 ! D29   D(6,5,14,45)           80.8226         estimate D2E/DX2                !
 ! D30   D(15,5,14,45)        -163.2414         estimate D2E/DX2                !
 ! D31   D(3,5,15,16)          -57.1985         estimate D2E/DX2                !
 ! D32   D(6,5,15,16)         -177.4715         estimate D2E/DX2                !
 ! D33   D(14,5,15,16)          63.0998         estimate D2E/DX2                !
 ! D34   D(5,6,44,4)           -44.3827         estimate D2E/DX2                !
 ! D35   D(5,6,44,7)          -156.4654         estimate D2E/DX2                !
 ! D36   D(5,6,44,24)           96.7546         estimate D2E/DX2                !
 ! D37   D(8,7,44,4)          -113.0986         estimate D2E/DX2                !
 ! D38   D(8,7,44,6)             7.0776         estimate D2E/DX2                !
 ! D39   D(8,7,44,24)          126.6423         estimate D2E/DX2                !
 ! D40   D(48,7,44,4)          105.4767         estimate D2E/DX2                !
 ! D41   D(48,7,44,6)         -134.347          estimate D2E/DX2                !
 ! D42   D(48,7,44,24)         -14.7824         estimate D2E/DX2                !
 ! D43   D(12,11,43,2)          -3.4672         estimate D2E/DX2                !
 ! D44   D(12,11,43,3)        -123.4841         estimate D2E/DX2                !
 ! D45   D(12,11,43,13)        115.7028         estimate D2E/DX2                !
 ! D46   D(47,11,43,2)        -146.1297         estimate D2E/DX2                !
 ! D47   D(47,11,43,3)          93.8534         estimate D2E/DX2                !
 ! D48   D(47,11,43,13)        -26.9597         estimate D2E/DX2                !
 ! D49   D(43,13,17,18)        -11.3889         estimate D2E/DX2                !
 ! D50   D(43,13,17,21)       -134.9832         estimate D2E/DX2                !
 ! D51   D(43,13,17,38)        111.582          estimate D2E/DX2                !
 ! D52   D(17,13,43,2)        -122.6242         estimate D2E/DX2                !
 ! D53   D(17,13,43,3)          18.8735         estimate D2E/DX2                !
 ! D54   D(17,13,43,11)        132.7084         estimate D2E/DX2                !
 ! D55   D(5,14,45,18)          56.0416         estimate D2E/DX2                !
 ! D56   D(5,14,45,19)         162.9539         estimate D2E/DX2                !
 ! D57   D(5,14,45,41)         -83.2706         estimate D2E/DX2                !
 ! D58   D(13,17,18,45)         52.3895         estimate D2E/DX2                !
 ! D59   D(21,17,18,45)        176.1461         estimate D2E/DX2                !
 ! D60   D(38,17,18,45)        -70.6697         estimate D2E/DX2                !
 ! D61   D(13,17,21,22)         61.9386         estimate D2E/DX2                !
 ! D62   D(18,17,21,22)        -62.2937         estimate D2E/DX2                !
 ! D63   D(38,17,21,22)        179.9787         estimate D2E/DX2                !
 ! D64   D(13,17,38,34)        -71.2611         estimate D2E/DX2                !
 ! D65   D(18,17,38,34)         52.5092         estimate D2E/DX2                !
 ! D66   D(21,17,38,34)        170.4218         estimate D2E/DX2                !
 ! D67   D(17,18,45,14)        -77.7794         estimate D2E/DX2                !
 ! D68   D(17,18,45,19)        172.4348         estimate D2E/DX2                !
 ! D69   D(17,18,45,41)         61.1164         estimate D2E/DX2                !
 ! D70   D(20,19,45,14)         29.8919         estimate D2E/DX2                !
 ! D71   D(20,19,45,18)        151.5322         estimate D2E/DX2                !
 ! D72   D(20,19,45,41)        -89.771          estimate D2E/DX2                !
 ! D73   D(46,19,45,14)       -117.0214         estimate D2E/DX2                !
 ! D74   D(46,19,45,18)          4.619          estimate D2E/DX2                !
 ! D75   D(46,19,45,41)        123.3158         estimate D2E/DX2                !
 ! D76   D(25,23,24,44)        -15.452          estimate D2E/DX2                !
 ! D77   D(29,23,24,44)       -139.1608         estimate D2E/DX2                !
 ! D78   D(32,23,24,44)        107.6626         estimate D2E/DX2                !
 ! D79   D(24,23,25,42)         55.282          estimate D2E/DX2                !
 ! D80   D(29,23,25,42)        178.9767         estimate D2E/DX2                !
 ! D81   D(32,23,25,42)        -67.7336         estimate D2E/DX2                !
 ! D82   D(24,23,29,30)         63.2324         estimate D2E/DX2                !
 ! D83   D(25,23,29,30)        -61.0068         estimate D2E/DX2                !
 ! D84   D(32,23,29,30)       -178.9939         estimate D2E/DX2                !
 ! D85   D(24,23,32,31)        -69.4136         estimate D2E/DX2                !
 ! D86   D(25,23,32,31)         54.3796         estimate D2E/DX2                !
 ! D87   D(29,23,32,31)        172.5373         estimate D2E/DX2                !
 ! D88   D(23,24,44,4)          24.5867         estimate D2E/DX2                !
 ! D89   D(23,24,44,6)        -116.8261         estimate D2E/DX2                !
 ! D90   D(23,24,44,7)         137.6128         estimate D2E/DX2                !
 ! D91   D(23,25,42,26)        -76.9436         estimate D2E/DX2                !
 ! D92   D(23,25,42,27)        175.6779         estimate D2E/DX2                !
 ! D93   D(23,25,42,35)         63.6991         estimate D2E/DX2                !
 ! D94   D(1,26,42,25)          48.2351         estimate D2E/DX2                !
 ! D95   D(1,26,42,27)         160.1972         estimate D2E/DX2                !
 ! D96   D(1,26,42,35)         -91.2481         estimate D2E/DX2                !
 ! D97   D(28,27,42,25)        121.5989         estimate D2E/DX2                !
 ! D98   D(28,27,42,26)          0.9106         estimate D2E/DX2                !
 ! D99   D(28,27,42,35)       -118.8509         estimate D2E/DX2                !
 ! D100  D(49,27,42,25)        -94.0322         estimate D2E/DX2                !
 ! D101  D(49,27,42,26)        145.2795         estimate D2E/DX2                !
 ! D102  D(49,27,42,35)         25.518          estimate D2E/DX2                !
 ! D103  D(33,31,32,23)        -55.8976         estimate D2E/DX2                !
 ! D104  D(39,31,32,23)       -174.2625         estimate D2E/DX2                !
 ! D105  D(41,31,32,23)         67.5785         estimate D2E/DX2                !
 ! D106  D(32,31,33,34)         73.9474         estimate D2E/DX2                !
 ! D107  D(39,31,33,34)       -168.0595         estimate D2E/DX2                !
 ! D108  D(41,31,33,34)        -49.2847         estimate D2E/DX2                !
 ! D109  D(32,31,39,40)         59.8604         estimate D2E/DX2                !
 ! D110  D(33,31,39,40)        -58.205          estimate D2E/DX2                !
 ! D111  D(41,31,39,40)       -179.5844         estimate D2E/DX2                !
 ! D112  D(32,31,41,45)       -125.0293         estimate D2E/DX2                !
 ! D113  D(33,31,41,45)         -3.3931         estimate D2E/DX2                !
 ! D114  D(39,31,41,45)        116.266          estimate D2E/DX2                !
 ! D115  D(31,33,34,35)        -55.0917         estimate D2E/DX2                !
 ! D116  D(31,33,34,36)       -176.0239         estimate D2E/DX2                !
 ! D117  D(31,33,34,38)         67.6368         estimate D2E/DX2                !
 ! D118  D(33,34,35,42)         10.2409         estimate D2E/DX2                !
 ! D119  D(36,34,35,42)        127.1428         estimate D2E/DX2                !
 ! D120  D(38,34,35,42)       -112.4231         estimate D2E/DX2                !
 ! D121  D(33,34,36,37)        175.7972         estimate D2E/DX2                !
 ! D122  D(35,34,36,37)         54.5667         estimate D2E/DX2                !
 ! D123  D(38,34,36,37)        -66.8197         estimate D2E/DX2                !
 ! D124  D(33,34,38,17)        -49.4302         estimate D2E/DX2                !
 ! D125  D(35,34,38,17)         74.3836         estimate D2E/DX2                !
 ! D126  D(36,34,38,17)       -163.3722         estimate D2E/DX2                !
 ! D127  D(34,35,42,25)        -20.8011         estimate D2E/DX2                !
 ! D128  D(34,35,42,26)        119.8565         estimate D2E/DX2                !
 ! D129  D(34,35,42,27)       -134.5268         estimate D2E/DX2                !
 ! D130  D(31,41,45,14)        134.6752         estimate D2E/DX2                !
 ! D131  D(31,41,45,18)         -6.0605         estimate D2E/DX2                !
 ! D132  D(31,41,45,19)       -112.9287         estimate D2E/DX2                !
 --------------------------------------------------------------------------------
 Trust Radius=3.00D-01 FncErr=1.00D-07 GrdErr=1.00D-06
 Number of steps in this run=    289 maximum allowed number of steps=    294.
 GradGradGradGradGradGradGradGradGradGradGradGradGradGradGradGradGradGrad

                          Input orientation:                          
 ---------------------------------------------------------------------
 Center     Atomic      Atomic             Coordinates (Angstroms)
 Number     Number       Type             X           Y           Z
 ---------------------------------------------------------------------
      1         14           0        2.243891   -1.802020    1.619875
      2          8           0        2.452286   -0.270302    2.129103
      3          8           0        2.525598    1.754545    0.018717
      4          8           0        2.398677   -1.877718    0.005937
      5         14           0        2.391005    1.665327   -1.597091
      6          8           0        2.413114    0.127177   -2.111731
      7          8           0        3.158833   -2.449593   -2.711188
      8          1           0        3.818692   -1.978752   -3.235866
      9          8           0        3.368606   -2.781708    2.336116
     10          1           0        4.278062   -2.627381    2.071804
     11          8           0        3.289824    2.238674    2.747146
     12          1           0        3.803563    1.708213    3.369655
     13          8           0        0.541933    1.952786    2.129923
     14          8           0        1.028434    2.421302   -2.073994
     15          8           0        3.697954    2.387465   -2.310467
     16          1           0        3.844674    3.304938   -2.070620
     17         14           0       -0.879593    2.575664    1.676778
     18          8           0       -0.883903    2.971349    0.108483
     19          8           0       -1.288283    4.023239   -2.380469
     20          1           0       -0.991416    4.348666   -3.239285
     21          8           0       -1.267559    3.883382    2.603365
     22          1           0       -0.662985    4.627084    2.552986
     23         14           0       -1.013267   -2.562847   -1.682787
     24          8           0        0.452650   -2.059118   -2.145401
     25          8           0       -1.057742   -2.891022   -0.101167
     26          8           0        0.804337   -2.380572    2.101192
     27          8           0       -1.425744   -3.868865    2.581682
     28          1           0       -0.804192   -4.284545    3.193206
     29          8           0       -1.481482   -3.876009   -2.563176
     30          1           0       -0.941378   -4.662899   -2.462792
     31         14           0       -2.658435    0.059272   -1.664709
     32          8           0       -2.148564   -1.439197   -2.067554
     33          8           0       -2.989937    0.083614   -0.065809
     34         14           0       -2.764453    0.102545    1.546249
     35          8           0       -1.846898   -1.125204    2.040100
     36          8           0       -4.279127    0.015760    2.180064
     37          1           0       -4.337825   -0.047485    3.136250
     38          8           0       -2.094621    1.521372    1.999422
     39          8           0       -4.034207    0.383434   -2.502519
     40          1           0       -4.778575   -0.204742   -2.356178
     41          8           0       -1.573883    1.173478   -2.065051
     42         13           0       -0.819314   -2.415496    1.533272
     43         13           0        2.066495    1.330031    1.617152
     44         13           0        1.977312   -1.460558   -1.604360
     45         13           0       -0.598069    2.486574   -1.517746
     46          1           0       -1.581833    4.767964   -1.839879
     47          1           0        3.118937    3.105376    3.136063
     48          1           0        2.859256   -3.224485   -3.203027
     49          1           0       -2.318954   -3.936452    2.941338
 ---------------------------------------------------------------------
                    Distance matrix (angstroms):
                    1          2          3          4          5
     1  Si   0.000000
     2  O    1.627545   0.000000
     3  O    3.910527   2.925596   0.000000
     4  O    1.623110   2.663549   3.634502   0.000000
     5  Si   4.732125   4.199397   1.623857   3.888821   0.000000
     6  O    4.204203   4.259601   2.683242   2.916218   1.622112
     7  O    4.473765   5.355085   5.052538   2.878827   4.331667
     8  H    5.107784   5.793855   5.118780   3.540613   4.243016
     9  O    1.654622   2.681354   5.163196   2.680988   6.016805
    10  H    2.241275   2.982040   5.146608   2.891693   5.953916
    11  O    4.323416   2.716322   2.874499   5.025242   4.473142
    12  H    4.220905   2.698044   3.586660   5.113434   5.163887
    13  O    4.153959   2.931138   2.903690   4.757266   4.170412
    14  O    5.740945   5.190194   2.658102   4.968425   1.629581
    15  O    5.925679   5.322142   2.683301   5.024503   1.654843
    16  H    6.501021   5.688476   2.917021   5.767401   2.241809
    17  Si   5.378058   4.405172   3.875400   5.776796   4.716327
    18  O    5.903597   5.071623   3.621238   5.856560   3.916593
    19  O    7.900168   7.263786   5.044676   7.355943   4.439661
    20  H    8.479952   7.874868   5.451003   7.796926   4.619294
    21  O    6.754356   5.596004   5.059683   7.306038   5.995723
    22  H    7.117163   5.819706   4.984081   7.627167   5.943231
    23  Si   4.700586   5.638823   5.835971   3.868146   5.428984
    24  O    4.177553   5.046760   4.850211   2.906576   4.234307
    25  O    3.879264   4.915544   5.868219   3.603483   5.906942
    26  O    1.624409   2.677640   4.939497   2.680462   5.706497
    27  O    4.320086   5.309765   7.335164   5.022482   7.915617
    28  H    4.234278   5.277415   7.591804   5.119558   8.279928
    29  O    5.973085   7.105852   7.377398   5.064498   6.829047
    30  H    5.915973   7.203982   7.704635   5.000782   7.204211
    31  Si   6.187544   6.373468   5.708071   5.667219   5.299135
    32  O    5.746515   6.336092   6.033267   5.016878   5.519700
    33  O    5.812925   5.878834   5.763704   5.734905   5.813878
    34  Si   5.358759   5.262423   5.748661   5.740376   6.237116
    35  O    4.167640   4.384263   5.612278   4.767494   6.243080
    36  O    6.794696   6.737681   7.348406   7.273593   7.840831
    37  H    6.978307   6.868013   7.750671   7.650429   8.403297
    38  O    5.478291   4.888893   5.032294   5.976414   5.751215
    39  O    7.822075   7.997117   7.160141   7.265477   6.614106
    40  H    8.226501   8.509253   7.926530   7.738952   7.448238
    41  O    6.083393   5.990448   4.635242   5.420334   4.022591
    42  Al   3.125232   3.957302   5.556218   3.602419   6.062874
    43  Al   3.137072   1.723947   1.716386   3.604998   3.247936
    44  Al   3.253206   3.947285   3.643060   1.715992   3.153150
    45  Al   6.026063   5.495866   3.557229   5.509005   3.100856
    46  H    8.352889   7.577009   5.422736   7.963453   5.046657
    47  H    5.210285   3.585191   3.448861   5.928549   5.000637
    48  H    5.065813   6.109372   5.939840   3.510465   5.168032
    49  H    5.207842   6.071665   8.024889   5.925454   8.611677
                    6          7          8          9         10
     6  O    0.000000
     7  O    2.748670   0.000000
     8  H    2.770247   0.965605   0.000000
     9  O    5.399807   5.062567   5.647504   0.000000
    10  H    5.344865   4.915414   5.366852   0.959577   0.000000
    11  O    5.369891   7.196556   7.339129   5.037796   5.011107
    12  H    5.871849   7.394571   7.564843   4.627827   4.550488
    13  O    4.982549   7.047373   7.415243   5.517973   5.911004
    14  O    2.679883   5.354459   5.338161   7.210880   7.296364
    15  O    2.607530   4.883478   4.464840   6.958416   6.685021
    16  H    3.485573   5.830552   5.410717   7.529490   7.248442
    17  Si   5.584784   7.798483   8.182338   6.869014   7.336834
    18  O    4.887636   7.326723   7.602800   7.492920   7.864241
    19  O    5.380693   7.860265   7.926966   9.499479   9.748727
    20  H    5.539239   7.982467   7.948168  10.046747  10.229384
    21  O    7.063183   9.377846   9.712424   8.123354   8.568927
    22  H    7.174338   9.612345   9.860695   8.437473   8.790492
    23  Si   4.377249   4.298471   5.108919   5.949814   6.488396
    24  O    2.936739   2.792134   3.539182   5.395269   5.722020
    25  O    5.019834   4.978612   5.868405   5.054192   5.767332
    26  O    5.160009   5.357930   6.142637   2.606065   3.482606
    27  O    7.261770   7.144729   8.057326   4.922195   5.859579
    28  H    7.612930   7.344010   8.247467   4.517230   5.461963
    29  O    5.603319   4.856860   5.669563   6.980251   7.497630
    30  H    5.858386   4.666064   5.519108   6.718955   7.207527
    31  Si   5.091665   6.421069   6.969595   7.771936   8.324339
    32  O    4.823317   5.440922   6.104442   7.185667   7.736122
    33  O    5.777599   7.156992   7.788456   7.376339   8.046284
    34  Si   6.339450   7.728162   8.398703   6.823285   7.571375
    35  O    6.078969   7.027524   7.788663   5.480248   6.306558
    36  O    7.950975   9.237184   9.944096   8.144814   8.956752
    37  H    8.552601   9.806250  10.529123   8.216159   9.056623
    38  O    6.258197   8.096739   8.638656   6.962522   7.604504
    39  O    6.464235   7.733654   8.233210   9.393197   9.954057
    40  H    7.203493   8.256381   8.822356   9.748586  10.368167
    41  O    4.122265   5.995226   6.355095   7.709862   8.112050
    42  Al   5.495437   5.817410   6.666822   4.279877   5.130122
    43  Al   3.933392   5.849213   6.129439   4.372505   4.556188
    44  Al   1.722861   1.897169   2.514163   4.382749   4.491003
    45  Al   3.871278   6.316990   6.511440   7.638165   7.925532
    46  H    6.129471   8.679068   8.754006   9.947026  10.214243
    47  H    6.075129   8.065334   8.181656   5.946428   5.944806
    48  H    3.552972   0.965458   1.572719   5.580107   5.494851
    49  H    8.027394   8.010490   8.925309   5.835072   6.781620
                   11         12         13         14         15
    11  O    0.000000
    12  H    0.965833   0.000000
    13  O    2.830830   3.497854   0.000000
    14  O    5.328286   6.151679   4.257829   0.000000
    15  O    5.076235   5.721566   5.465023   2.680187   0.000000
    16  H    4.965445   5.669904   5.511894   2.951615   0.959588
    17  Si   4.317787   5.054726   1.616804   4.211020   6.073506
    18  O    4.991929   5.848341   2.675201   2.953437   5.213986
    19  O    7.101843   8.021856   5.289622   2.833250   5.248163
    20  H    7.656268   8.581486   6.076166   3.025298   5.167127
    21  O    4.847213   5.570892   2.688049   5.411742   7.144217
    22  H    4.622434   5.397852   2.963559   5.397714   6.905567
    23  Si   7.822755   8.183580   6.111166   5.400308   6.862592
    24  O    7.103351   7.472432   5.863595   4.517830   5.507390
    25  O    7.302602   7.538690   5.567692   6.038623   7.440435
    26  O    5.285105   5.227095   4.341391   6.367134   7.111254
    27  O    7.717901   7.685724   6.161774   8.201494   9.451300
    28  H    7.714423   7.561461   6.468920   8.721829   9.750664
    29  O    9.399693   9.711525   7.752047   6.796698   8.131514
    30  H    9.626954   9.855099   8.189049   7.363235   8.441222
    31  Si   7.719847   8.355911   5.312907   4.397693   6.800086
    32  O    8.141507   8.654320   6.030185   4.999681   6.991718
    33  O    7.210575   7.784175   4.559512   5.064079   7.421193
    34  Si   6.531422   7.002986   3.833570   5.733130   7.864974
    35  O    6.180736   6.459387   3.897256   6.145812   7.874748
    36  O    7.908979   8.343225   5.195883   7.214835   9.456409
    37  H    7.972387   8.331816   5.368968   7.876439  10.008469
    38  O    5.483235   6.058137   2.674802   5.211148   7.271808
    39  O    9.200127   9.882718   6.698018   5.474201   7.989952
    40  H    9.854606  10.492743   7.286140   6.379427   8.864151
    41  O    6.924415   7.664130   4.762542   2.886035   5.415372
    42  Al   6.326121   6.461290   4.614203   6.310401   7.632069
    43  Al   1.897117   2.496336   1.724833   3.986603   4.382467
    44  Al   5.860257   6.173907   5.258907   4.023650   4.273930
    45  Al   5.776372   6.623209   3.858759   1.720228   4.369673
    46  H    7.153401   8.093442   5.309890   3.517830   5.810712
    47  H    0.965210   1.573322   2.996954   5.655339   5.524070
    48  H    8.089255   8.271842   7.785530   6.041650   5.744046
    49  H    8.344356   8.338520   6.597438   8.762397  10.187078
                   16         17         18         19         20
    16  H    0.000000
    17  Si   6.074005   0.000000
    18  O    5.217203   1.617447   0.000000
    19  O    5.192226   4.327095   2.732193   0.000000
    20  H    5.083592   5.227209   3.621617   0.965193   0.000000
    21  O    6.950947   1.649002   2.683921   4.985839   5.867649
    22  H    6.591266   2.241201   2.960719   5.009452   5.808252
    23  Si   7.627641   6.140752   5.818308   6.628644   7.084644
    24  O    6.347008   6.153465   5.672034   6.330969   6.658949
    25  O    8.142625   5.751303   5.868694   7.283912   7.890834
    26  O    7.679368   5.251669   5.955174   8.091547   8.776564
    27  O   10.044136   6.530627   7.293753   9.323473  10.079688
    28  H   10.340216   7.026216   7.884787  10.015961  10.767745
    29  O    8.954136   7.743614   7.374359   7.903722   8.266956
    30  H    9.303038   8.338864   8.055836   8.693452   9.045095
    31  Si   7.279391   4.545552   3.843614   4.254722   4.863861
    32  O    7.643672   5.634662   5.078132   5.538610   6.017583
    33  O    7.817167   3.701415   3.578375   4.875851   5.679411
    34  Si   8.186429   3.112242   3.719365   5.741954   6.638866
    35  O    8.301697   3.842409   4.630362   6.808814   7.652908
    36  O    9.740798   4.285235   4.955250   6.767828   7.678051
    37  H   10.261751   4.579338   5.496391   7.503645   8.436352
    38  O    7.417653   1.640708   2.672812   5.108127   6.054313
    39  O    8.414184   5.676617   4.841389   4.561050   5.052174
    40  H    9.314495   6.260787   5.597372   5.482568   5.987986
    41  O    5.822707   4.055792   2.903905   2.881353   3.435100
    42  Al   8.213659   4.993586   5.572459   7.549477   8.280145
    43  Al   4.545530   3.199155   3.697953   5.872723   6.484440
    44  Al   5.139493   5.934548   5.546367   6.429501   6.725579
    45  Al   4.551193   3.208142   1.720851   1.892624   2.566282
    46  H    5.625004   4.203118   2.740629   0.965932   1.575671
    47  H    5.260805   4.289330   5.020651   7.120266   7.686731
    48  H    6.699758   8.451817   7.960257   8.390959   8.495976
    49  H   10.749315   6.788117   7.602773   9.630192  10.421403
                   21         22         23         24         25
    21  O    0.000000
    22  H    0.959761   0.000000
    23  Si   7.745297   8.352220   0.000000
    24  O    7.798923   8.247714   1.617612   0.000000
    25  O    7.297333   7.982624   1.615920   2.674367   0.000000
    26  O    6.616801   7.173869   4.201834   4.273239   2.928871
    27  O    7.753891   8.530168   4.479008   5.398969   2.879111
    28  H    8.202296   8.935712   5.175255   5.918860   3.585957
    29  O    9.324541   9.957291   1.648849   2.686354   2.685376
    30  H    9.940385  10.561218   2.241382   2.970476   2.954718
    31  Si   5.897017   6.529600   3.095547   3.794403   3.702852
    32  O    7.136070   7.768919   1.643026   2.675197   2.676633
    33  O    4.952708   5.737239   3.677716   4.557127   3.547265
    34  Si   4.201537   5.089316   4.538462   5.352646   3.819461
    35  O    5.073346   5.895212   4.076965   4.866059   2.885464
    36  O    4.920084   5.871956   5.677735   6.738285   4.902114
    37  H    5.016195   5.974633   6.372037   7.408857   5.415304
    38  O    2.574465   3.464313   5.604359   6.040534   4.995679
    39  O    6.780415   7.411601   4.298675   5.121082   5.034670
    40  H    7.323733   8.023996   4.493513   5.554174   5.113294
    41  O    5.406618   5.838099   3.797439   3.816146   4.543501
    42  Al   6.404833   7.117738   3.225270   3.908648   1.718826
    43  Al   4.313715   4.381370   5.960623   5.314850   5.525465
    44  Al   7.536036   7.830331   3.188221   1.724991   3.676598
    45  Al   4.402595   4.599658   5.069150   4.707577   5.580012
    46  H    4.541329   4.490144   7.354504   7.130324   7.871331
    47  H    4.486692   4.118071   8.510298   7.853340   7.992565
    48  H   10.063129  10.353019   4.212520   2.875484   5.007555
    49  H    7.897434   8.730819   4.997413   6.089424   3.455491
                   26         27         28         29         30
    26  O    0.000000
    27  O    2.723811   0.000000
    28  H    2.721208   0.965960   0.000000
    29  O    5.405333   5.145165   5.810470   0.000000
    30  H    5.393189   5.129505   5.670299   0.959680   0.000000
    31  Si   5.667948   5.914527   6.775419   4.204628   5.087644
    32  O    5.194637   5.295390   6.130166   2.574625   3.464934
    33  O    5.016435   5.007794   5.871922   4.918424   5.698378
    34  Si   4.382932   4.316985   5.079532   5.861935   6.488873
    35  O    2.934063   2.828137   3.521126   5.374998   5.797524
    36  O    5.620519   4.836673   5.620877   6.743219   7.388270
    37  H    5.740773   4.836394   5.517471   7.436380   8.011690
    38  O    4.862045   5.462699   6.066218   7.094009   7.712751
    39  O    7.228097   7.122866   8.041412   4.966180   5.918838
    40  H    7.468018   7.003552   7.952118   4.938813   5.883078
    41  O    5.970325   6.858520   7.617854   5.074838   5.884009
    42  Al   1.720464   1.891878   2.499791   4.399142   4.586311
    43  Al   3.949166   6.336763   6.499866   7.560829   7.849105
    44  Al   3.994172   5.907934   6.223207   4.326313   4.417086
    45  Al   6.225156   7.608020   8.251279   6.508134   7.219829
    46  H    8.504553   9.704091  10.386751   8.674762   9.473087
    47  H    6.043505   8.342751   8.366907  10.118543  10.400934
    48  H    5.750619   7.227677   7.446904   4.435752   4.130593
    49  H    3.589088   0.965269   1.574519   5.568185   5.624061
                   31         32         33         34         35
    31  Si   0.000000
    32  O    1.633298   0.000000
    33  O    1.633085   2.652140   0.000000
    34  Si   3.212999   3.976916   1.627861   0.000000
    35  O    3.973309   4.130668   2.683772   1.610330   0.000000
    36  O    4.172627   4.969754   2.590475   1.644229   2.690191
    37  H    5.087333   5.814577   3.476661   2.241899   2.927070
    38  O    3.985157   5.030723   2.670940   1.633129   2.658456
    39  O    1.643093   2.658351   2.667948   4.252493   5.262670
    40  H    2.245624   2.919613   2.920302   4.402278   5.363697
    41  O    1.605609   2.675133   2.681414   3.950423   4.712827
    42  Al   4.442288   3.960557   3.676169   3.181865   1.725589
    43  Al   5.891554   6.245991   5.472972   4.984958   4.639150
    44  Al   4.878901   4.151850   5.424497   5.903725   5.293310
    45  Al   3.187240   4.256525   3.688275   4.445771   5.221377
    46  H    4.833377   6.237136   5.203193   5.884776   7.060731
    47  H    8.105812   8.687770   7.530031   6.794025   6.615018
    48  H    6.602605   5.436434   7.416112   8.077800   7.351547
    49  H    6.107105   5.599492   5.064986   4.296305   2.989679
                   36         37         38         39         40
    36  O    0.000000
    37  H    0.960071   0.000000
    38  O    2.659242   2.964060   0.000000
    39  O    4.703377   5.663355   5.032332   0.000000
    40  H    4.568978   5.512328   5.399475   0.959922   0.000000
    41  O    5.165235   6.015285   4.112437   2.620828   3.500614
    42  Al   4.277809   4.533976   4.164449   5.870022   5.974195
    43  Al   6.504698   6.724621   4.183017   7.422015   8.062125
    44  Al   7.459518   8.021915   6.201596   6.351799   6.912620
    45  Al   5.773119   6.485901   3.942303   4.147291   5.042101
    46  H    6.783714   7.452912   5.054062   5.067281   5.934099
    47  H    8.074095   8.095915   5.566166   9.506316  10.173116
    48  H    9.509646  10.103353   8.609851   7.812018   8.256662
    49  H    4.476806   4.386102   5.543047   7.158148   6.931022
                   41         42         43         44         45
    41  O    0.000000
    42  Al   5.137902   0.000000
    43  Al   5.180297   4.729049   0.000000
    44  Al   4.445376   4.310192   4.263036   0.000000
    45  Al   1.725102   5.778231   4.273766   4.713803   0.000000
    46  H    3.601541   7.972558   6.089396   7.177567   2.505255
    47  H    7.266800   6.968414   2.562533   6.680020   5.988070
    48  H    6.347424   6.051353   6.678788   2.538700   6.885453
    49  H    7.192388   2.558296   6.980077   6.726910   8.006256
                   46         47         48         49
    46  H    0.000000
    47  H    7.044248   0.000000
    48  H    9.244495   8.962067   0.000000
    49  H    9.958426   8.899209   8.066844   0.000000
 Stoichiometry    Al4H14O25Si6
 Framework group  C1[X(Al4H14O25Si6)]
 Deg. of freedom   141
 Full point group                 C1      NOp   1
 Largest Abelian subgroup         C1      NOp   1
 Largest concise Abelian subgroup C1      NOp   1
                         Standard orientation:                         
 ---------------------------------------------------------------------
 Center     Atomic      Atomic             Coordinates (Angstroms)
 Number     Number       Type             X           Y           Z
 ---------------------------------------------------------------------
      1         14           0        2.243890   -1.802021    1.619875
      2          8           0        2.452286   -0.270304    2.129103
      3          8           0        2.525599    1.754543    0.018717
      4          8           0        2.398676   -1.877720    0.005937
      5         14           0        2.391006    1.665325   -1.597091
      6          8           0        2.413114    0.127175   -2.111731
      7          8           0        3.158831   -2.449595   -2.711188
      8          1           0        3.818691   -1.978755   -3.235866
      9          8           0        3.368604   -2.781710    2.336116
     10          1           0        4.278060   -2.627384    2.071804
     11          8           0        3.289826    2.238672    2.747146
     12          1           0        3.803564    1.708210    3.369655
     13          8           0        0.541934    1.952786    2.129923
     14          8           0        1.028436    2.421301   -2.073994
     15          8           0        3.697956    2.387463   -2.310467
     16          1           0        3.844676    3.304935   -2.070620
     17         14           0       -0.879591    2.575665    1.676778
     18          8           0       -0.883901    2.971350    0.108483
     19          8           0       -1.288280    4.023240   -2.380469
     20          1           0       -0.991413    4.348667   -3.239285
     21          8           0       -1.267556    3.883383    2.603365
     22          1           0       -0.662982    4.627084    2.552986
     23         14           0       -1.013269   -2.562846   -1.682787
     24          8           0        0.452649   -2.059118   -2.145401
     25          8           0       -1.057744   -2.891021   -0.101167
     26          8           0        0.804335   -2.380573    2.101192
     27          8           0       -1.425747   -3.868864    2.581682
     28          1           0       -0.804195   -4.284544    3.193206
     29          8           0       -1.481485   -3.876008   -2.563176
     30          1           0       -0.941381   -4.662898   -2.462792
     31         14           0       -2.658435    0.059274   -1.664709
     32          8           0       -2.148565   -1.439196   -2.067554
     33          8           0       -2.989937    0.083616   -0.065809
     34         14           0       -2.764453    0.102547    1.546249
     35          8           0       -1.846899   -1.125203    2.040100
     36          8           0       -4.279127    0.015763    2.180064
     37          1           0       -4.337825   -0.047482    3.136250
     38          8           0       -2.094620    1.521373    1.999422
     39          8           0       -4.034207    0.383437   -2.502519
     40          1           0       -4.778575   -0.204739   -2.356178
     41          8           0       -1.573882    1.173479   -2.065051
     42         13           0       -0.819316   -2.415495    1.533272
     43         13           0        2.066496    1.330030    1.617152
     44         13           0        1.977311   -1.460559   -1.604360
     45         13           0       -0.598067    2.486574   -1.517746
     46          1           0       -1.581830    4.767965   -1.839879
     47          1           0        3.118939    3.105374    3.136063
     48          1           0        2.859254   -3.224487   -3.203027
     49          1           0       -2.318957   -3.936450    2.941338
 ---------------------------------------------------------------------
 Rotational constants (GHZ):      0.0866449      0.0856471      0.0754934
 Standard basis: 6-311G(d,p) (5D, 7F)
 There are   829 symmetry adapted cartesian basis functions of A   symmetry.
 There are   794 symmetry adapted basis functions of A   symmetry.
   794 basis functions,  1372 primitive gaussians,   829 cartesian basis functions
   175 alpha electrons      175 beta electrons
       nuclear repulsion energy      7480.5552640835 Hartrees.
 NAtoms=   49 NActive=   49 NUniq=   49 SFac= 1.00D+00 NAtFMM=   60 NAOKFM=F Big=F
 Integral buffers will be    131072 words long.
 Raffenetti 2 integral format.
 Two-electron integral symmetry is turned on.
 ------------------------------------------------------------------------------
 Polarizable Continuum Model (PCM)
 =================================
 Model                : C-PCM.
 Atomic radii         : UFF (Universal Force Field).
 Polarization charges : Total charges.
 Charge compensation  : None.
 Solution method      : On-the-fly selection.
 Cavity type          : Scaled VdW (van der Waals Surface) (Alpha=1.100).
 Cavity algorithm     : GePol (No added spheres)
                        Default sphere list used, NSphG=   49.
                        Lebedev-Laikov grids with approx.  5.0 points / Ang**2.
                        Smoothing algorithm: Karplus/York (Gamma=1.0000).
                        Polarization charges: spherical gaussians, with
                                              point-specific exponents (IZeta= 3).
                        Self-potential: point-specific (ISelfS= 7).
                        Self-field    : sphere-specific E.n sum rule (ISelfD= 2).
 1st derivatives      : Analytical E(r).r(x)/FMM algorithm (CHGder, D1EAlg=3).
                        Cavity 1st derivative terms included.
 Solvent              : Water, Eps=  78.355300 Eps(inf)=   1.777849
 ------------------------------------------------------------------------------
 One-electron integrals computed using PRISM.
 NBasis=   794 RedAO= T EigKep=  3.39D-03  NBF=   794
 NBsUse=   794 1.00D-06 EigRej= -1.00D+00 NBFU=   794
 ExpMin= 4.14D-02 ExpMax= 6.94D+04 ExpMxC= 2.33D+03 IAcc=2 IRadAn=         4 AccDes= 0.00D+00
 Harris functional with IExCor= 1009 and IRadAn=       4 diagonalized for initial guess.
 HarFok:  IExCor= 1009 AccDes= 0.00D+00 IRadAn=         4 IDoV= 1 UseB2=F ITyADJ=14
 ICtDFT=  3500011 ScaDFX=  1.000000  1.000000  1.000000  1.000000
 FoFCou: FMM=F IPFlag=           0 FMFlag=      100000 FMFlg1=           0
         NFxFlg=           0 DoJE=T BraDBF=F KetDBF=T FulRan=T
         wScrn=  0.000000 ICntrl=     500 IOpCl=  0 I1Cent=   200000004 NGrid=           0
         NMat0=    1 NMatS0=      1 NMatT0=    0 NMatD0=    1 NMtDS0=    0 NMtDT0=    0
 Petite list used in FoFCou.
 Requested convergence on RMS density matrix=1.00D-08 within 128 cycles.
 Requested convergence on MAX density matrix=1.00D-06.
 Requested convergence on             energy=1.00D-06.
 No special actions if energy rises.
 Inv3:  Mode=1 IEnd=    59327427.
 Iteration    1 A*A^-1 deviation from unit magnitude is 8.88D-15 for   1956.
 Iteration    1 A*A^-1 deviation from orthogonality  is 7.21D-15 for   3989   3953.
 Iteration    1 A^-1*A deviation from unit magnitude is 8.66D-15 for   1956.
 Iteration    1 A^-1*A deviation from orthogonality  is 6.00D-15 for   3749   2561.
 Error on total polarization charges =  0.01051
 SCF Done:  E(RM062X) =  -4597.86033136     A.U. after   11 cycles
            NFock= 11  Conv=0.46D-08     -V/T= 2.0021

 **********************************************************************

            Population analysis using the SCF density.

 **********************************************************************

 Orbital symmetries:
       Occupied  (A) (A) (A) (A) (A) (A) (A) (A) (A) (A) (A) (A)
                 (A) (A) (A) (A) (A) (A) (A) (A) (A) (A) (A) (A)
                 (A) (A) (A) (A) (A) (A) (A) (A) (A) (A) (A) (A)
                 (A) (A) (A) (A) (A) (A) (A) (A) (A) (A) (A) (A)
                 (A) (A) (A) (A) (A) (A) (A) (A) (A) (A) (A) (A)
                 (A) (A) (A) (A) (A) (A) (A) (A) (A) (A) (A) (A)
                 (A) (A) (A) (A) (A) (A) (A) (A) (A) (A) (A) (A)
                 (A) (A) (A) (A) (A) (A) (A) (A) (A) (A) (A) (A)
                 (A) (A) (A) (A) (A) (A) (A) (A) (A) (A) (A) (A)
                 (A) (A) (A) (A) (A) (A) (A) (A) (A) (A) (A) (A)
                 (A) (A) (A) (A) (A) (A) (A) (A) (A) (A) (A) (A)
                 (A) (A) (A) (A) (A) (A) (A) (A) (A) (A) (A) (A)
                 (A) (A) (A) (A) (A) (A) (A) (A) (A) (A) (A) (A)
                 (A) (A) (A) (A) (A) (A) (A) (A) (A) (A) (A) (A)
                 (A) (A) (A) (A) (A) (A) (A)
       Virtual   (A) (A) (A) (A) (A) (A) (A) (A) (A) (A) (A) (A)
                 (A) (A) (A) (A) (A) (A) (A) (A) (A) (A) (A) (A)
                 (A) (A) (A) (A) (A) (A) (A) (A) (A) (A) (A) (A)
                 (A) (A) (A) (A) (A) (A) (A) (A) (A) (A) (A) (A)
                 (A) (A) (A) (A) (A) (A) (A) (A) (A) (A) (A) (A)
                 (A) (A) (A) (A) (A) (A) (A) (A) (A) (A) (A) (A)
                 (A) (A) (A) (A) (A) (A) (A) (A) (A) (A) (A) (A)
                 (A) (A) (A) (A) (A) (A) (A) (A) (A) (A) (A) (A)
                 (A) (A) (A) (A) (A) (A) (A) (A) (A) (A) (A) (A)
                 (A) (A) (A) (A) (A) (A) (A) (A) (A) (A) (A) (A)
                 (A) (A) (A) (A) (A) (A) (A) (A) (A) (A) (A) (A)
                 (A) (A) (A) (A) (A) (A) (A) (A) (A) (A) (A) (A)
                 (A) (A) (A) (A) (A) (A) (A) (A) (A) (A) (A) (A)
                 (A) (A) (A) (A) (A) (A) (A) (A) (A) (A) (A) (A)
                 (A) (A) (A) (A) (A) (A) (A) (A) (A) (A) (A) (A)
                 (A) (A) (A) (A) (A) (A) (A) (A) (A) (A) (A) (A)
                 (A) (A) (A) (A) (A) (A) (A) (A) (A) (A) (A) (A)
                 (A) (A) (A) (A) (A) (A) (A) (A) (A) (A) (A) (A)
                 (A) (A) (A) (A) (A) (A) (A) (A) (A) (A) (A) (A)
                 (A) (A) (A) (A) (A) (A) (A) (A) (A) (A) (A) (A)
                 (A) (A) (A) (A) (A) (A) (A) (A) (A) (A) (A) (A)
                 (A) (A) (A) (A) (A) (A) (A) (A) (A) (A) (A) (A)
                 (A) (A) (A) (A) (A) (A) (A) (A) (A) (A) (A) (A)
                 (A) (A) (A) (A) (A) (A) (A) (A) (A) (A) (A) (A)
                 (A) (A) (A) (A) (A) (A) (A) (A) (A) (A) (A) (A)
                 (A) (A) (A) (A) (A) (A) (A) (A) (A) (A) (A) (A)
                 (A) (A) (A) (A) (A) (A) (A) (A) (A) (A) (A) (A)
                 (A) (A) (A) (A) (A) (A) (A) (A) (A) (A) (A) (A)
                 (A) (A) (A) (A) (A) (A) (A) (A) (A) (A) (A) (A)
                 (A) (A) (A) (A) (A) (A) (A) (A) (A) (A) (A) (A)
                 (A) (A) (A) (A) (A) (A) (A) (A) (A) (A) (A) (A)
                 (A) (A) (A) (A) (A) (A) (A) (A) (A) (A) (A) (A)
                 (A) (A) (A) (A) (A) (A) (A) (A) (A) (A) (A) (A)
                 (A) (A) (A) (A) (A) (A) (A) (A) (A) (A) (A) (A)
                 (A) (A) (A) (A) (A) (A) (A) (A) (A) (A) (A) (A)
                 (A) (A) (A) (A) (A) (A) (A) (A) (A) (A) (A) (A)
                 (A) (A) (A) (A) (A) (A) (A) (A) (A) (A) (A) (A)
                 (A) (A) (A) (A) (A) (A) (A) (A) (A) (A) (A) (A)
                 (A) (A) (A) (A) (A) (A) (A) (A) (A) (A) (A) (A)
                 (A) (A) (A) (A) (A) (A) (A) (A) (A) (A) (A) (A)
                 (A) (A) (A) (A) (A) (A) (A) (A) (A) (A) (A) (A)
                 (A) (A) (A) (A) (A) (A) (A) (A) (A) (A) (A) (A)
                 (A) (A) (A) (A) (A) (A) (A) (A) (A) (A) (A) (A)
                 (A) (A) (A) (A) (A) (A) (A) (A) (A) (A) (A) (A)
                 (A) (A) (A) (A) (A) (A) (A) (A) (A) (A) (A) (A)
                 (A) (A) (A) (A) (A) (A) (A) (A) (A) (A) (A) (A)
                 (A) (A) (A) (A) (A) (A) (A) (A) (A) (A) (A) (A)
                 (A) (A) (A) (A) (A) (A) (A) (A) (A) (A) (A) (A)
                 (A) (A) (A) (A) (A) (A) (A) (A) (A) (A) (A) (A)
                 (A) (A) (A) (A) (A) (A) (A) (A) (A) (A) (A) (A)
                 (A) (A) (A) (A) (A) (A) (A) (A) (A) (A) (A) (A)
                 (A) (A) (A) (A) (A) (A) (A)
 The electronic state is 1-A.
 Alpha  occ. eigenvalues --  -67.05986 -67.05962 -67.04803 -67.04781 -67.03500
 Alpha  occ. eigenvalues --  -67.03498 -56.83954 -56.83937 -56.83611 -56.83588
 Alpha  occ. eigenvalues --  -19.70982 -19.70906 -19.70697 -19.70696 -19.61293
 Alpha  occ. eigenvalues --  -19.61285 -19.61021 -19.60800 -19.60784 -19.60535
 Alpha  occ. eigenvalues --  -19.60510 -19.60219 -19.60208 -19.58928 -19.58915
 Alpha  occ. eigenvalues --  -19.58556 -19.58486 -19.58445 -19.58428 -19.58037
 Alpha  occ. eigenvalues --  -19.57970 -19.57919 -19.57888 -19.57886 -19.57880
 Alpha  occ. eigenvalues --   -5.59882  -5.59863  -5.58750  -5.58727  -5.57484
 Alpha  occ. eigenvalues --   -5.57482  -4.36938  -4.36930  -4.36587  -4.36569
 Alpha  occ. eigenvalues --   -3.91274  -3.91232  -3.91195  -3.91188  -3.91168
 Alpha  occ. eigenvalues --   -3.91159  -3.90117  -3.90094  -3.90067  -3.90045
 Alpha  occ. eigenvalues --   -3.90035  -3.90011  -3.88823  -3.88820  -3.88807
 Alpha  occ. eigenvalues --   -3.88803  -3.88777  -3.88777  -2.87611  -2.87603
 Alpha  occ. eigenvalues --   -2.87425  -2.87420  -2.87404  -2.87377  -2.87265
 Alpha  occ. eigenvalues --   -2.87247  -2.87066  -2.87055  -2.87046  -2.87035
 Alpha  occ. eigenvalues --   -1.22502  -1.22462  -1.22272  -1.22262  -1.15029
 Alpha  occ. eigenvalues --   -1.13815  -1.12805  -1.12536  -1.12193  -1.12077
 Alpha  occ. eigenvalues --   -1.10512  -1.09898  -1.09316  -1.08203  -1.08133
 Alpha  occ. eigenvalues --   -1.07409  -1.07067  -1.06974  -1.06784  -1.05887
 Alpha  occ. eigenvalues --   -1.05859  -1.05216  -1.05050  -1.04837  -1.04636
 Alpha  occ. eigenvalues --   -0.70107  -0.70019  -0.69809  -0.69783  -0.69157
 Alpha  occ. eigenvalues --   -0.66304  -0.64901  -0.64154  -0.63510  -0.63220
 Alpha  occ. eigenvalues --   -0.62359  -0.61705  -0.61401  -0.60862  -0.57991
 Alpha  occ. eigenvalues --   -0.57088  -0.56493  -0.56454  -0.55764  -0.55681
 Alpha  occ. eigenvalues --   -0.55440  -0.55054  -0.54351  -0.53873  -0.53556
 Alpha  occ. eigenvalues --   -0.52278  -0.52104  -0.51266  -0.50853  -0.49522
 Alpha  occ. eigenvalues --   -0.49456  -0.49298  -0.49040  -0.48772  -0.48506
 Alpha  occ. eigenvalues --   -0.46948  -0.46525  -0.46251  -0.45901  -0.45731
 Alpha  occ. eigenvalues --   -0.45653  -0.45518  -0.44735  -0.44452  -0.44320
 Alpha  occ. eigenvalues --   -0.43862  -0.43444  -0.42881  -0.42130  -0.42078
 Alpha  occ. eigenvalues --   -0.41852  -0.41700  -0.41529  -0.41325  -0.41244
 Alpha  occ. eigenvalues --   -0.41186  -0.40841  -0.40728  -0.40709  -0.40504
 Alpha  occ. eigenvalues --   -0.40311  -0.40029  -0.39611  -0.38727  -0.38569
 Alpha  occ. eigenvalues --   -0.38173  -0.37988  -0.37850  -0.37590  -0.37144
 Alpha  occ. eigenvalues --   -0.37084  -0.36723  -0.36420  -0.35945  -0.35103
 Alpha virt. eigenvalues --    0.01144   0.01553   0.02005   0.02097   0.03942
 Alpha virt. eigenvalues --    0.05221   0.05579   0.05855   0.06138   0.07121
 Alpha virt. eigenvalues --    0.07962   0.08807   0.09440   0.09929   0.10401
 Alpha virt. eigenvalues --    0.10996   0.12006   0.12126   0.12640   0.12864
 Alpha virt. eigenvalues --    0.13551   0.13988   0.14619   0.14845   0.15052
 Alpha virt. eigenvalues --    0.15334   0.15663   0.15813   0.16232   0.16620
 Alpha virt. eigenvalues --    0.16951   0.17442   0.17569   0.18457   0.18930
 Alpha virt. eigenvalues --    0.19480   0.19716   0.20670   0.21094   0.21258
 Alpha virt. eigenvalues --    0.21547   0.21775   0.22185   0.22308   0.22592
 Alpha virt. eigenvalues --    0.22916   0.22950   0.23236   0.23562   0.23710
 Alpha virt. eigenvalues --    0.23971   0.24165   0.24766   0.25028   0.25612
 Alpha virt. eigenvalues --    0.26004   0.26253   0.26664   0.27728   0.27838
 Alpha virt. eigenvalues --    0.28308   0.28646   0.28964   0.29409   0.29484
 Alpha virt. eigenvalues --    0.30082   0.30698   0.31423   0.31863   0.32167
 Alpha virt. eigenvalues --    0.32821   0.33273   0.34179   0.35070   0.35525
 Alpha virt. eigenvalues --    0.36158   0.36239   0.36638   0.37022   0.37223
 Alpha virt. eigenvalues --    0.37768   0.38093   0.38662   0.39250   0.39993
 Alpha virt. eigenvalues --    0.41026   0.41571   0.41873   0.42013   0.42640
 Alpha virt. eigenvalues --    0.43881   0.44328   0.45070   0.45294   0.45771
 Alpha virt. eigenvalues --    0.46056   0.46188   0.46320   0.46703   0.47804
 Alpha virt. eigenvalues --    0.48790   0.49237   0.50159   0.51229   0.52186
 Alpha virt. eigenvalues --    0.52688   0.55183   0.58716   0.59186   0.59604
 Alpha virt. eigenvalues --    0.60273   0.61641   0.61833   0.62946   0.63090
 Alpha virt. eigenvalues --    0.63551   0.64644   0.66163   0.66742   0.66962
 Alpha virt. eigenvalues --    0.67498   0.67835   0.68969   0.69249   0.69837
 Alpha virt. eigenvalues --    0.70216   0.70712   0.72196   0.73196   0.74473
 Alpha virt. eigenvalues --    0.74934   0.75378   0.76648   0.76936   0.77403
 Alpha virt. eigenvalues --    0.78444   0.78769   0.78894   0.80359   0.81597
 Alpha virt. eigenvalues --    0.82757   0.83601   0.83753   0.84496   0.85772
 Alpha virt. eigenvalues --    0.86002   0.87082   0.87439   0.87800   0.88430
 Alpha virt. eigenvalues --    0.89104   0.89299   0.89849   0.90033   0.90295
 Alpha virt. eigenvalues --    0.91280   0.91675   0.91869   0.92652   0.93640
 Alpha virt. eigenvalues --    0.93692   0.93905   0.94261   0.94735   0.95106
 Alpha virt. eigenvalues --    0.95366   0.95702   0.95904   0.96340   0.96617
 Alpha virt. eigenvalues --    0.97069   0.97295   0.97761   0.97907   0.98112
 Alpha virt. eigenvalues --    0.98435   0.98790   0.99275   1.00061   1.00183
 Alpha virt. eigenvalues --    1.00991   1.01281   1.01493   1.01697   1.02985
 Alpha virt. eigenvalues --    1.03364   1.04379   1.04821   1.05458   1.05825
 Alpha virt. eigenvalues --    1.06236   1.06770   1.07366   1.07744   1.08058
 Alpha virt. eigenvalues --    1.08240   1.09000   1.09140   1.09527   1.09837
 Alpha virt. eigenvalues --    1.10229   1.10818   1.11143   1.11511   1.12217
 Alpha virt. eigenvalues --    1.12579   1.12691   1.13169   1.13406   1.13710
 Alpha virt. eigenvalues --    1.14112   1.14527   1.14855   1.15211   1.15417
 Alpha virt. eigenvalues --    1.15701   1.15802   1.16290   1.16952   1.17112
 Alpha virt. eigenvalues --    1.18051   1.18587   1.18835   1.19101   1.19406
 Alpha virt. eigenvalues --    1.19867   1.20796   1.21312   1.21616   1.22512
 Alpha virt. eigenvalues --    1.23951   1.24985   1.25818   1.26168   1.26462
 Alpha virt. eigenvalues --    1.26809   1.27893   1.28004   1.28221   1.28351
 Alpha virt. eigenvalues --    1.28883   1.29526   1.29616   1.30074   1.30217
 Alpha virt. eigenvalues --    1.30819   1.31279   1.31532   1.32733   1.33863
 Alpha virt. eigenvalues --    1.34415   1.35072   1.35622   1.35733   1.36378
 Alpha virt. eigenvalues --    1.36833   1.37449   1.38212   1.38576   1.38948
 Alpha virt. eigenvalues --    1.39382   1.39789   1.40297   1.41514   1.41822
 Alpha virt. eigenvalues --    1.42268   1.43168   1.43402   1.45190   1.45639
 Alpha virt. eigenvalues --    1.46460   1.46991   1.47935   1.48211   1.48726
 Alpha virt. eigenvalues --    1.50184   1.50736   1.52260   1.53160   1.53778
 Alpha virt. eigenvalues --    1.55709   1.56706   1.57431   1.58749   1.59750
 Alpha virt. eigenvalues --    1.61291   1.61926   1.62775   1.64249   1.65296
 Alpha virt. eigenvalues --    1.65440   1.67423   1.67650   1.67825   1.68321
 Alpha virt. eigenvalues --    1.68620   1.68929   1.69049   1.69568   1.70111
 Alpha virt. eigenvalues --    1.70502   1.71578   1.74248   1.75557   1.75754
 Alpha virt. eigenvalues --    1.77325   1.78024   1.78871   1.79384   1.80435
 Alpha virt. eigenvalues --    1.81326   1.82549   1.86992   1.87383   1.87656
 Alpha virt. eigenvalues --    1.88001   1.99227   1.99802   2.00093   2.00820
 Alpha virt. eigenvalues --    2.06005   2.06127   2.06378   2.06712   2.07115
 Alpha virt. eigenvalues --    2.07187   2.11049   2.12107   2.12312   2.12795
 Alpha virt. eigenvalues --    2.38198   2.38425   2.38570   2.39256   2.49484
 Alpha virt. eigenvalues --    2.49655   2.50254   2.50447   2.50524   2.50688
 Alpha virt. eigenvalues --    2.55558   2.56020   2.56460   2.56857   2.85905
 Alpha virt. eigenvalues --    2.86962   2.87184   2.87458   2.87820   2.88036
 Alpha virt. eigenvalues --    2.88202   2.88789   2.89220   2.89919   2.90130
 Alpha virt. eigenvalues --    2.90340   2.90560   2.90935   2.91410   2.91743
 Alpha virt. eigenvalues --    2.91963   2.92461   2.92888   2.93067   2.93581
 Alpha virt. eigenvalues --    2.93845   2.94157   2.94410   2.95036   2.97128
 Alpha virt. eigenvalues --    2.97475   2.97680   2.97739   2.98078   2.98895
 Alpha virt. eigenvalues --    2.99137   2.99528   3.00127   3.00810   3.01345
 Alpha virt. eigenvalues --    3.01600   3.02466   3.02636   3.03114   3.04527
 Alpha virt. eigenvalues --    3.05104   3.05937   3.06355   3.07184   3.07520
 Alpha virt. eigenvalues --    3.08253   3.09009   3.09230   3.09780   3.10188
 Alpha virt. eigenvalues --    3.10658   3.11643   3.11844   3.12006   3.12254
 Alpha virt. eigenvalues --    3.12989   3.13238   3.13558   3.14056   3.14430
 Alpha virt. eigenvalues --    3.14557   3.14648   3.14859   3.14993   3.17928
 Alpha virt. eigenvalues --    3.18843   3.18979   3.19325   3.19386   3.19839
 Alpha virt. eigenvalues --    3.19857   3.19917   3.20546   3.21180   3.21272
 Alpha virt. eigenvalues --    3.22380   3.22816   3.23327   3.23855   3.24183
 Alpha virt. eigenvalues --    3.28190   3.29027   3.29149   3.29709   3.31217
 Alpha virt. eigenvalues --    3.31503   3.32303   3.33051   3.33285   3.33681
 Alpha virt. eigenvalues --    3.34868   3.35574   3.36788   3.40790   3.42235
 Alpha virt. eigenvalues --    3.45803   3.45958   3.46081   3.46518   3.49489
 Alpha virt. eigenvalues --    3.49985   3.52049   3.52719   3.53155   3.53654
 Alpha virt. eigenvalues --    3.54563   3.54818   3.55108   3.55688   3.56946
 Alpha virt. eigenvalues --    3.61573   3.61643   3.61860   3.62096   3.80852
 Alpha virt. eigenvalues --    3.81179   3.81567   3.81749   3.81833   3.82005
 Alpha virt. eigenvalues --    3.82686   3.82932   3.83131   3.83624   4.71288
 Alpha virt. eigenvalues --    4.72430   4.74516   4.75145   4.84620   4.85993
 Alpha virt. eigenvalues --    4.86967   4.87809   4.92145   4.93114   4.95344
 Alpha virt. eigenvalues --    4.95899   4.97227   4.97310   4.98748   4.99648
 Alpha virt. eigenvalues --    5.00149   5.00672   5.00983   5.01276   5.01802
 Alpha virt. eigenvalues --    5.01926   5.02682   5.03490   5.04065   5.04980
 Alpha virt. eigenvalues --    5.05219   5.05897   5.06104   5.06723   5.07121
 Alpha virt. eigenvalues --    5.07908   5.10260   5.10604   5.12708   5.13822
 Alpha virt. eigenvalues --    5.14319   5.14907   5.14957   5.15466   5.16138
 Alpha virt. eigenvalues --    5.16272   5.17804   5.18333   5.19865   5.19925
 Alpha virt. eigenvalues --    5.20128   5.20626   5.23271   5.24175   5.29655
 Alpha virt. eigenvalues --    5.30132   5.31115   5.31325   5.32315   5.32663
 Alpha virt. eigenvalues --    5.33232   5.33704   5.33744   5.34031   5.34211
 Alpha virt. eigenvalues --    5.34582   5.35508   5.36467   5.37141   5.37963
 Alpha virt. eigenvalues --    5.38569   5.39253   5.39479   5.57274   5.57775
 Alpha virt. eigenvalues --    5.58351   5.58542   5.58776   5.58978   5.65370
 Alpha virt. eigenvalues --    5.65454   5.65549   5.65802   5.87576   5.92487
 Alpha virt. eigenvalues --    5.94891   5.95285   5.99693   6.07934   8.31250
 Alpha virt. eigenvalues --    8.31331   8.32239   8.34201   8.48348   8.49254
 Alpha virt. eigenvalues --    8.50152   8.50429   8.51149   8.51438   8.52776
 Alpha virt. eigenvalues --    8.54139  11.59646  11.60111  11.62094  11.64015
 Alpha virt. eigenvalues --   11.64340  11.65135  11.65439  11.66120  11.66523
 Alpha virt. eigenvalues --   11.66760  11.67426  11.67932  11.68417  11.69135
 Alpha virt. eigenvalues --   11.70414  11.70693  11.72764  11.73846  49.91935
 Alpha virt. eigenvalues --   49.92267  49.92403  49.92513  49.93476  49.94744
 Alpha virt. eigenvalues --   49.95088  49.96018  49.96238  49.97327  49.97412
 Alpha virt. eigenvalues --   49.97758  49.97925  49.98207  49.98569  49.99236
 Alpha virt. eigenvalues --   49.99420  50.00314  50.00865  50.02986  50.04246
 Alpha virt. eigenvalues --   50.04442  50.05098  50.06118  50.06727 120.83243
 Alpha virt. eigenvalues --  120.86501 120.88184 120.89210 141.39379 141.46326
 Alpha virt. eigenvalues --  141.48218 141.49331 141.54433 141.64568
          Condensed to atoms (all electrons):
               1          2          3          4          5          6
     1  Si  11.236714   0.357010  -0.002466   0.336931   0.000342  -0.001859
     2  O    0.357010   8.277461  -0.007114  -0.027421  -0.001332   0.000013
     3  O   -0.002466  -0.007114   8.275413  -0.000356   0.336836  -0.024952
     4  O    0.336931  -0.027421  -0.000356   8.275457  -0.001307  -0.007719
     5  Si   0.000342  -0.001332   0.336836  -0.001307  11.238618   0.350868
     6  O   -0.001859   0.000013  -0.024952  -0.007719   0.350868   8.271750
     7  O   -0.001717   0.000000  -0.000001  -0.005256  -0.000433  -0.013003
     8  H   -0.000018   0.000004   0.000013  -0.000852   0.000690   0.000571
     9  O    0.378916  -0.023892   0.000000  -0.023840  -0.000031   0.000000
    10  H   -0.024558  -0.002694   0.000000  -0.001401   0.000020   0.000000
    11  O   -0.000584  -0.014171  -0.005461  -0.000001  -0.001676   0.000000
    12  H    0.000401   0.001302  -0.000673   0.000016   0.000024   0.000003
    13  O   -0.001173  -0.005100  -0.008712   0.000001  -0.001944   0.000000
    14  O   -0.000077   0.000000  -0.027888   0.000000   0.352366  -0.023833
    15  O   -0.000027   0.000000  -0.023642  -0.000001   0.379733  -0.023511
    16  H    0.000004   0.000001  -0.001680   0.000001  -0.023609   0.000034
    17  Si   0.000451  -0.001565  -0.001768  -0.000104   0.000258  -0.000247
    18  O   -0.000066   0.000001  -0.000325   0.000000  -0.000945   0.000000
    19  O    0.000000   0.000000   0.000000   0.000000  -0.002997   0.000000
    20  H    0.000000   0.000000   0.000010   0.000000   0.000079   0.000007
    21  O    0.000008   0.000000   0.000000   0.000000  -0.000038   0.000000
    22  H    0.000005   0.000000  -0.000008   0.000000   0.000012   0.000000
    23  Si   0.000401  -0.000175  -0.000044  -0.001609   0.000409  -0.001511
    24  O   -0.001524   0.000000   0.000001  -0.008268  -0.001180  -0.004921
    25  O   -0.001313   0.000000   0.000000  -0.000337  -0.000079   0.000001
    26  O    0.351993  -0.023942   0.000000  -0.024847  -0.000181   0.000000
    27  O   -0.000310   0.000000   0.000000  -0.000001  -0.000001   0.000000
    28  H    0.000516   0.000009   0.000000   0.000011   0.000001   0.000000
    29  O   -0.000037   0.000000   0.000000   0.000000   0.000008   0.000000
    30  H    0.000009   0.000000   0.000000  -0.000007   0.000003   0.000001
    31  Si  -0.000116   0.000038  -0.000172  -0.000247  -0.000629  -0.000064
    32  O   -0.000142   0.000000   0.000000   0.000000  -0.000025   0.000002
    33  O   -0.000157   0.000000   0.000000   0.000000  -0.000118   0.000000
    34  Si   0.000243   0.000052  -0.000162  -0.000084   0.000031   0.000035
    35  O   -0.000864  -0.000008   0.000000   0.000001  -0.000007   0.000000
    36  O    0.000006   0.000000   0.000000   0.000000   0.000000   0.000000
    37  H    0.000010   0.000000   0.000000   0.000000   0.000000   0.000000
    38  O   -0.000062   0.000001   0.000000   0.000000  -0.000129   0.000000
    39  O    0.000000   0.000000   0.000000   0.000000  -0.000005   0.000000
    40  H    0.000000   0.000000   0.000000   0.000000   0.000001   0.000000
    41  O   -0.000045   0.000000  -0.000002   0.000000  -0.001745  -0.000056
[...]
 ,-0.00024288,-0.00032156,0.00284407,-0.00103204,0.00228578,-0.00445767
 ,0.12892764,-0.34003142,-0.21173085,-0.00661219,0.01460398,0.01062943,
 0.00008509,-0.00026425,-0.00052042,0.00001955,0.00008651,0.00005010,0.
 00002302,-0.00006918,-0.00000992,0.00000343,0.00003010,0.00001012,-0.0
 0000376,0.00002687,0.00000054,0.00000214,0.00002372,-0.00001059,0.0000
 0051,0.00001575,-0.00000735,0.00000171,-0.00000149,0.00000174,0.000000
 26,0.00002197,0.00000744,0.00000101,-0.00000260,0.00000107,-0.00022620
 ,-0.00040105,-0.00001792,-0.00000995,0.00009744,0.00001160,0.00009700,
 0.00012501,0.00003911,-0.00025706,-0.00045738,0.00000268,-0.00003303,0
 .00014006,-0.00002465,0.00009936,0.00005525,-0.00002967,-0.00001351,-0
 .00000400,0.00001310,0.00047452,0.00052544,-0.00046374,0.00009389,0.00
 002917,0.00000970,-0.00000570,-0.00001687,0.00000059,-0.00003184,0.000
 12172,0.00065697,0.00002408,-0.00006386,0.00000516,0.00039787,-0.00017
 129,0.00008243,0.00000359,-0.00011782,0.00000328,0.00392706,-0.0102506
 9,-0.00405375,-0.12409180,0.33276189,0.00000564,0.00000782,0.00002964,
 0.00003048,-0.00002579,-0.00002981,-0.00008527,0.00007171,-0.00039063,
 -0.00000673,0.00002385,-0.00004640,0.00075602,-0.00042550,0.00025781,-
 0.00014691,0.00031525,-0.00000139,-0.00001150,0.00002732,0.00001435,0.
 00000844,-0.00000912,-0.00000140,-0.00000230,-0.00000173,-0.00000616,0
 .00000082,0.00000029,0.00000072,0.00003098,-0.00000255,-0.00000622,0.0
 0000179,0.00000243,-0.00000342,0.00038873,-0.00017856,0.00033814,-0.00
 257659,0.00128614,-0.00079230,-0.00026569,-0.00002024,0.00002831,0.000
 02806,0.00001609,0.00002299,0.00009111,0.00023428,-0.00165100,0.001064
 61,-0.00274457,0.00109252,0.09027690,-0.17650968,-0.19435598,0.0098624
 0,-0.03202885,-0.01710088,-0.00002193,0.00009834,0.00026880,-0.0000181
 9,-0.00004004,-0.00003770,0.00010901,-0.00014081,0.00003809,-0.0000201
 2,0.00003974,0.00000406,-0.00001398,0.00002253,-0.00004867,0.00000151,
 -0.00000269,-0.00000961,0.00000240,-0.00000108,-0.00000290,-0.00000078
 ,-0.00000038,0.00000053,-0.00000770,0.00003976,0.00000862,-0.00000170,
 0.00000019,0.00000350,-0.00066495,-0.00061108,0.00020195,0.00001950,0.
 00032488,0.00000239,0.00008727,0.00003513,-0.00035451,0.00014550,0.000
 26885,0.00023675,-0.00000054,-0.00005932,-0.00003234,-0.00003126,-0.00
 003231,-0.00002689,0.00000691,0.00000171,-0.00000564,-0.00028546,-0.00
 033091,0.00022067,0.00019942,0.00007325,0.00003110,0.00000103,0.000007
 36,0.00002129,0.00088175,0.00224814,-0.00069714,-0.00000558,0.00001802
 ,0.00003663,-0.00024074,0.00006108,0.00019105,-0.00002478,-0.00010827,
 0.00001713,-0.00053655,0.00069782,0.00919805,-0.09902514,0.20735523,0.
 20333858,-0.00002468,0.00073901,0.00024293,-0.00072938,-0.00294632,-0.
 00077509,-0.00031604,0.00022748,-0.00044346,-0.00000999,-0.00015476,-0
 .00029736,0.00001519,0.00001795,-0.00004025,-0.00000216,0.00002982,-0.
 00002325,0.00000860,-0.00000460,-0.00001875,-0.00000030,-0.00000201,0.
 00000152,0.00010324,-0.00019957,0.00002923,-0.00002732,0.00000738,-0.0
 0000332,-0.04093604,0.08267098,0.00414174,-0.00295298,0.01971717,0.012
 34748,0.00253297,0.00126546,0.00127934,-0.00009164,0.00001494,0.000002
 02,-0.00000797,0.00000168,-0.00001727,0.00000823,-0.00000186,0.0000030
 2,-0.00144620,0.00071153,-0.00030521,0.00019973,-0.00016556,0.00040638
 ,0.00000063,-0.00001772,0.00004104,0.00000630,-0.00000141,-0.00000418,
 0.00018621,-0.00023005,-0.00007037,-0.00005064,0.00008437,-0.00000975,
 0.00003259,-0.00000622,0.00002678,-0.00003413,-0.00000524,-0.00002724,
 -0.00002841,0.00000115,-0.00002343,-0.00026233,-0.00023689,-0.00000596
 ,-0.00002778,-0.00000439,0.00000556,0.00000347,0.00000796,-0.00000495,
 -0.00000514,-0.00000238,-0.00000364,0.00000139,0.00000138,-0.00000005,
 -0.00002284,-0.00004957,-0.00005401,-0.00001589,0.00002949,0.00000400,
 0.00002407,0.00004688,0.00005994,-0.00012729,-0.00025617,-0.00006278,-
 0.00004667,0.00009758,-0.00000552,0.00005183,0.00004284,-0.00001176,-0
 .00000533,-0.00000482,0.00000598,0.00049406,0.00019202,-0.00000446,0.0
 0001196,0.00000356,0.00001142,-0.00000124,-0.00000033,-0.00000016,0.00
 001831,0.00003851,0.00004410,0.00016637,0.00000473,0.00002592,0.004104
 00,-0.00725221,-0.00158756,0.00001995,-0.00004428,0.00010664,0.0000330
 2,-0.00003268,-0.00021421,-0.00000459,0.00001286,-0.00000642,0.0391408
 4,-0.00017609,-0.00097948,-0.00022353,0.00012864,0.00176071,-0.0000436
 5,0.00034320,0.00008207,0.00244495,-0.00000136,0.00020071,0.00021764,0
 .00004802,0.00000376,-0.00124821,-0.00001518,0.00024378,0.00028871,-0.
 00001896,0.00003728,0.00003278,0.00001076,-0.00000339,-0.00000566,-0.0
 0010389,0.00023550,-0.00003750,0.00003658,-0.00001485,0.00000676,0.093
 15041,-0.42074682,-0.16464164,0.00215280,-0.01756111,-0.01199210,0.003
 37265,-0.00019477,0.00093879,0.00020611,-0.00012255,0.00031121,-0.0001
 5532,-0.00009410,0.00022916,0.00002740,0.00003911,-0.00002062,-0.00162
 875,0.00089452,-0.00030711,0.00028467,-0.00024244,0.00041997,0.0000251
 3,-0.00004672,0.00005067,0.00000267,0.00000375,-0.00000956,0.00023872,
 -0.00031280,-0.00010827,0.00000299,0.00006364,0.00002099,-0.00004741,-
 0.00002937,-0.00002381,0.00006129,0.00003852,0.00003375,0.00003172,0.0
 0002385,0.00002989,0.00021060,0.00020628,-0.00001427,0.00002278,0.0000
 2361,-0.00001094,-0.00000212,-0.00000764,0.00000548,0.00001042,0.00001
 889,0.00001181,0.00000033,-0.00000325,-0.00000135,-0.00006060,-0.00005
 003,-0.00005500,0.00001282,0.00001818,0.00001573,0.00004159,0.00004399
 ,0.00006903,-0.00018197,-0.00027083,-0.00006376,0.00001726,0.00006733,
 -0.00000713,0.00007052,0.00003762,-0.00001674,-0.00000818,-0.00000319,
 0.00000950,0.00056142,0.00020615,-0.00000097,0.00002711,0.00000220,0.0
 0001611,-0.00000284,-0.00000074,-0.00000069,0.00006690,0.00006568,0.00
 005401,-0.00012816,-0.00006251,-0.00001454,-0.00408214,-0.00640246,-0.
 00599553,-0.00003493,-0.00017678,-0.00015994,-0.00017196,0.00001948,-0
 .00025977,-0.00000773,0.00001853,-0.00000295,-0.09433351,0.44297855,-0
 .00002488,0.00006298,0.00012978,-0.00006906,0.00011761,0.00054963,-0.0
 0038417,0.00043176,-0.00031155,0.00001163,0.00003404,0.00001820,-0.000
 09825,0.00005730,-0.00018258,0.00002444,0.00003587,0.00005533,-0.00000
 173,0.00000689,0.00000062,0.00000424,-0.00000167,-0.00000130,0.0000100
 7,0.00000674,-0.00000812,0.00000151,-0.00000191,-0.00000149,0.01578860
 ,-0.20395918,-0.12596456,-0.00424332,0.02770806,0.01340685,0.00141307,
 0.00050574,0.00019937,-0.00003481,0.00000665,-0.00000921,-0.00000289,-
 0.00001226,0.00004569,0.00000528,0.00000315,0.00000334,-0.00086317,0.0
 0041399,-0.00022887,0.00011349,-0.00008004,0.00018912,0.00000415,-0.00
 001006,0.00002162,0.00000220,-0.00000058,-0.00000401,0.00011556,-0.000
 13144,-0.00003401,-0.00000642,0.00003896,0.00002716,-0.00001068,-0.000
 01349,-0.00000917,0.00000778,0.00000721,0.00000266,-0.00000278,0.00000
 472,-0.00000264,-0.00002648,-0.00001849,-0.00001717,-0.00000286,0.0000
 0137,-0.00000173,0.00000140,-0.00000021,-0.00000013,0.00000157,0.00000
 353,0.00000296,-0.00000031,-0.00000143,0.00000031,-0.00001966,-0.00001
 997,-0.00002138,0.00000093,0.00001082,0.00000591,0.00001601,0.00001818
 ,0.00003307,-0.00007973,-0.00015160,-0.00003086,-0.00000613,0.00004512
 ,-0.00000405,0.00003068,0.00001936,-0.00000696,-0.00000305,-0.00000073
 ,0.00000572,0.00027413,0.00009902,0.00002080,0.00000897,0.00000093,0.0
 0000549,-0.00000109,-0.00000126,-0.00000109,0.00001575,0.00002156,0.00
 002421,0.00001745,-0.00003589,-0.00000037,0.00279522,-0.00523836,-0.00
 187128,-0.00001552,-0.00004019,-0.00000669,0.00000386,-0.00001027,-0.0
 0011567,-0.00000221,0.00000663,-0.00000245,-0.01476539,0.18006345,0.11
 408342,0.00001429,-0.00000435,-0.00028919,0.00000166,0.00003136,0.0000
 8947,0.00001614,0.00017230,0.00028318,-0.00052374,-0.00015443,0.001087
 06,-0.00017979,-0.00084241,-0.00027370,-0.00084090,0.00307983,0.000590
 02,-0.08016562,-0.12661196,-0.04363606,-0.00710409,-0.02247879,-0.0182
 3970,0.00002653,-0.00002102,0.00007142,-0.00001090,0.00000221,-0.00000
 562,0.00001199,0.00001053,0.00002316,-0.00000226,0.00000122,-0.0000027
 0,-0.00004583,0.00001609,0.00002771,-0.00026036,0.00030851,0.00000453,
 0.00011838,0.00020157,-0.00002254,0.00000785,-0.00000577,-0.00000402,0
 .00004147,0.00000217,-0.00002733,-0.00003379,-0.00000023,0.00002254,-0
 .00002305,0.00001244,-0.00000411,0.00000279,-0.00000343,0.00000408,-0.
 00000662,0.00000409,0.00000490,0.00000164,-0.00000205,-0.00000002,-0.0
 0178716,-0.00071517,0.00040575,0.00259136,-0.00169238,-0.00180766,0.00
 025000,0.00016980,-0.00051721,-0.00016188,-0.00003958,0.00005213,-0.00
 000645,0.00001380,-0.00003177,0.00000551,0.00000056,0.00000193,0.00024
 869,0.00025999,0.00006979,-0.00005010,-0.00009368,0.00000632,-0.000106
 26,0.00033180,0.00005712,0.00056114,-0.00026130,0.00001570,0.00002646,
 -0.00005715,-0.00007263,-0.00002510,0.00004972,0.00006200,0.00001311,-
 0.00004038,-0.00005352,0.00001218,-0.00000442,-0.00001227,-0.00000118,
 0.00000122,0.00000170,-0.00002200,-0.00003189,-0.00000585,0.00005267,-
 0.00005355,0.00001723,-0.00001145,-0.00000167,0.00000203,-0.00006264,-
 0.00012026,0.00000367,0.00008893,0.00004687,0.00026692,0.00002703,0.00
 000107,-0.00010977,0.00671913,0.00636447,0.00221374,0.00019566,0.00000
 100,-0.00001812,-0.00000529,-0.00000517,0.00000074,0.00001200,-0.00000
 089,-0.00000227,0.08039526,-0.00003731,0.00003068,-0.00116163,0.000040
 51,0.00023745,0.00027689,0.00001330,0.00017514,0.00016939,-0.00035738,
 0.00016488,0.00236214,0.00008744,-0.00084818,-0.00017064,0.00020290,0.
 00116296,-0.00009094,-0.13824534,-0.33555275,-0.19304262,-0.00398531,-
 0.01429168,-0.01238352,0.00012953,-0.00010536,0.00021877,-0.00004315,0
 .00001186,-0.00002085,0.00001843,0.00003486,0.00002947,-0.00000917,-0.
 00000344,-0.00000816,-0.00005513,0.00003757,0.00002822,-0.00013416,0.0
 0016431,-0.00001596,0.00009640,0.00018992,-0.00001556,0.00000612,-0.00
 000486,-0.00000294,0.00004226,-0.00002989,-0.00002019,-0.00002370,0.00
 002484,0.00002345,-0.00001791,0.00002137,-0.00000521,0.00000150,-0.000
 00248,0.00000437,-0.00000893,0.00001818,0.00001091,-0.00000073,-0.0000
 0286,-0.00000148,0.00186214,0.00086629,-0.00033701,-0.00389988,-0.0000
 8312,0.00120367,-0.00034641,-0.00022905,0.00050882,-0.00018761,-0.0000
 8960,0.00029876,-0.00002939,-0.00004351,0.00004630,-0.00000506,0.00001
 478,-0.00000394,-0.00028506,-0.00033733,-0.00011447,-0.00000293,0.0000
 7064,0.00001989,0.00016352,-0.00033640,-0.00005135,-0.00061243,0.00027
 646,-0.00001730,-0.00004325,0.00005537,0.00007761,0.00006284,-0.000060
 76,-0.00005713,-0.00006720,0.00007014,0.00005993,-0.00002844,0.0000050
 7,0.00001694,0.00000304,-0.00000004,-0.00000345,-0.00000809,0.00002300
 ,0.00001595,-0.00007075,0.00005234,-0.00002348,0.00001618,-0.00000122,
 0.00000049,-0.00001027,0.00008789,-0.00000723,0.00016319,-0.00000025,-
 0.00029210,0.00002692,-0.00017940,-0.00014573,0.00331112,-0.00680426,-
 0.00696443,0.00009157,-0.00008605,-0.00002052,0.00000744,-0.00000115,-
 0.00000092,-0.00000386,-0.00000575,-0.00000476,0.14216203,0.35530329,0
 .00011126,0.00002732,-0.00018145,-0.00002161,0.00002758,0.00005454,0.0
 0000184,0.00006732,0.00008364,0.00051725,0.00023030,-0.00033891,-0.000
 00016,-0.00018307,0.00003113,-0.00012499,0.00082253,0.00054314,-0.0634
 1780,-0.22794692,-0.16979790,0.00752101,0.02158327,0.01368981,0.000007
 97,-0.00002517,0.00003445,-0.00000775,0.00000519,0.00000098,0.00000484
 ,0.00000658,0.00000555,-0.00000610,-0.00000036,-0.00000016,-0.00001177
 ,0.00000919,0.00000963,-0.00003950,0.00006589,-0.00001466,0.00003235,0
 .00006079,-0.00001466,-0.00000137,0.00000014,-0.00000306,0.00001086,-0
 .00001809,-0.00001594,-0.00000483,0.00000947,0.00000785,-0.00000356,0.
 00000944,-0.00000332,0.00000012,-0.00000106,0.00000309,-0.00000179,0.0
 0000652,0.00000566,0.,-0.00000187,-0.00000018,0.00124702,0.00049487,-0
 .00031850,-0.00216865,0.00067903,0.00037705,-0.00017413,-0.00009871,0.
 00029888,0.00004176,0.00000791,0.00000174,-0.00000491,-0.00001363,0.00
 002183,-0.00000160,0.00000156,-0.00000246,-0.00017856,-0.00018752,-0.0
 0005133,0.00002009,0.00005617,0.00002190,0.00009936,-0.00022365,-0.000
 03452,-0.00039357,0.00017529,0.00000902,-0.00002392,0.00003061,0.00004
 936,0.00002554,-0.00003081,-0.00003670,-0.00001990,0.00003147,0.000035
 57,-0.00001348,0.00000173,0.00000861,0.00000064,0.,-0.00000135,-0.0000
 0057,0.00001415,0.00000989,-0.00004147,0.00003614,-0.00001511,0.000011
 41,-0.00000113,0.00000490,0.00000369,0.00006049,-0.00000709,-0.0000048
 3,-0.00001666,-0.00017282,0.00001335,-0.00003474,-0.00004406,-0.002780
 23,-0.00530481,-0.00337046,0.00002041,-0.00003885,-0.00000579,-0.00000
 257,-0.00000311,0.00000050,0.00000321,-0.00000515,0.00000410,0.0597508
 5,0.20961326,0.15911868,-0.00106536,-0.00042045,0.00024924,0.00018634,
 0.00032353,0.00002300,0.00001321,0.00004343,-0.00003381,0.00023347,0.0
 0006680,-0.00027210,-0.00001545,-0.00005909,0.00002804,0.00002849,0.00
 007206,-0.00003711,0.00003996,-0.00001312,-0.00003513,-0.00000436,-0.0
 0000481,0.00000563,0.00030020,-0.00004014,0.00002458,-0.00000454,-0.00
 001051,0.00000748,0.00001497,0.00003314,0.00001340,-0.00000858,-0.0000
 0583,-0.00000725,0.00002666,0.00004208,0.00000922,0.00000267,0.0000185
 3,-0.00001426,0.00001590,0.00001619,-0.00000959,-0.00000096,-0.0000019
 7,0.00000069,-0.00014993,-0.00019209,0.00002142,0.00002248,0.00004916,
 -0.00004177,-0.00000388,0.00001307,-0.00000830,-0.00000013,-0.00000011
 ,0.00000286,0.00001128,0.00005838,0.00001768,0.00000015,-0.00000199,0.
 00000111,0.00001515,-0.00011457,0.00116122,0.00022631,0.00009072,-0.00
 027892,-0.00003384,0.00052529,-0.00238559,0.00229793,0.00097222,-0.000
 08216,-0.45186478,-0.01757672,0.15090078,-0.02117240,-0.00331926,0.013
 38146,-0.00004538,-0.00013424,-0.00024532,-0.00000338,0.00004098,0.000
 02108,0.00006570,-0.00021351,0.00022755,-0.00017512,0.00021686,-0.0002
 5008,-0.00018222,0.00016639,-0.00033116,0.00093262,-0.00093172,0.00026
 553,-0.00134785,0.00228783,-0.00046006,-0.00029330,0.00008921,0.000050
 92,0.00003820,-0.00000456,-0.00003384,0.00003358,0.00043684,0.00002029
 ,-0.00006800,0.00003311,-0.00006008,0.00001638,0.00000343,0.00000350,0
 .00004357,0.00008279,-0.00004620,-0.00337900,-0.00639574,0.00541014,-0
 .00001907,-0.00017748,0.00001432,-0.00015614,-0.00007856,0.00017332,-0
 .00002018,-0.00005018,0.00002792,0.00000223,-0.00000274,-0.00000019,0.
 00000202,-0.00000350,-0.00000112,-0.00000543,0.00001050,0.00000481,0.4
 7544982,0.00052974,0.00003507,-0.00020345,-0.00013620,-0.00026173,0.00
 000136,0.00001080,-0.00001957,0.00001746,-0.00011098,-0.00003790,0.000
 23231,-0.00001673,0.00001347,-0.00001804,0.00000785,-0.00001759,0.0000
 1874,0.00000190,0.00000373,0.00001040,-0.00000394,0.00000790,-0.000000
 16,-0.00016460,0.00002982,-0.00001723,0.00000167,0.00000713,-0.0000011
 9,0.00000679,-0.00002127,-0.00000475,0.00000583,0.00000498,0.00000420,
 0.00012102,-0.00000750,0.00000976,0.00002828,-0.00000380,-0.00000432,0
 .00000252,-0.00000171,0.00000113,-0.00000055,-0.00000130,-0.00000106,-
 0.00027852,-0.00026481,0.00004972,0.00005223,0.00005997,-0.00006361,-0
 .00000093,0.00001035,-0.00000997,-0.00000259,-0.00000077,0.00000159,0.
 00003080,0.00007561,0.00002250,-0.00000213,0.00000125,0.00000030,0.000
 00844,-0.00001072,0.00030425,0.00008544,0.00001675,-0.00003692,0.00031
 776,-0.00016294,-0.00008914,-0.00223779,-0.00135188,0.00064671,-0.0311
 5519,-0.02651992,0.04153975,0.01734283,0.00215759,-0.00945923,-0.00001
 436,-0.00003097,-0.00003255,0.00000081,0.00001008,0.00000480,-0.000039
 55,-0.00001850,0.00037915,0.00001122,-0.00004675,-0.00008506,-0.000229
 32,0.00019563,-0.00058310,0.00135427,-0.00157197,0.00049804,0.00032941
 ,0.00353679,-0.00136873,-0.00036617,0.00017589,0.00006482,0.00006531,-
 0.00002850,-0.00005117,0.00006390,0.00069147,0.00003437,-0.00004407,0.
 00000907,-0.00007914,0.00001191,0.00000487,0.00000855,0.00005461,0.000
 04615,-0.00006955,-0.00952009,0.00073076,0.00289615,-0.00004620,0.0001
 3269,-0.00001913,-0.00008131,0.00000020,-0.00007735,-0.00004435,-0.000
 03876,0.00005037,0.00000294,-0.00000199,0.00000014,-0.00001031,-0.0000
 0208,0.00000216,-0.00000272,0.00000008,0.00000111,0.02406032,0.0224656
 4,-0.00007942,-0.00002046,0.00012461,0.00000723,0.00002271,-0.00001584
 ,-0.00000550,0.00000160,-0.00000200,-0.00002876,-0.00001295,0.00001940
 ,0.00000733,0.00001441,-0.00001271,-0.00000245,-0.00000766,0.00000154,
 -0.00000546,0.00000104,0.00000074,0.00000379,0.00000311,0.00000423,-0.
 00000399,-0.00000091,-0.00001377,0.00000163,-0.00000439,0.00000236,-0.
 00000185,0.00000194,-0.00000275,0.00000176,-0.00000094,-0.00000056,-0.
 00003928,-0.00000434,-0.00000626,-0.00000749,-0.00000413,0.00000450,-0
 .00000167,-0.00000236,0.00000200,0.00000125,0.00000021,0.00000251,0.00
 010768,0.00010909,-0.00000755,-0.00001383,-0.00002116,0.00002410,0.000
 00079,-0.00000493,0.00000351,0.00000081,0.00000052,-0.00000049,-0.0000
 1233,-0.00003035,-0.00000821,0.00000229,0.00000078,-0.00000098,-0.0000
 7911,0.00007621,-0.00014523,-0.00001999,-0.00003206,0.00004177,-0.0004
 7563,0.00026869,-0.00036189,-0.00022293,-0.00003559,0.00057966,0.19050
 957,0.03988008,-0.11055961,-0.02738876,-0.00338199,0.01193447,0.000015
 81,0.00000502,0.00001751,0.00000113,-0.00000837,-0.00000150,0.00002011
 ,-0.00000790,-0.00012988,-0.00002175,0.00003540,-0.00000165,0.00006814
 ,-0.00007772,0.00019273,-0.00054463,0.00064278,-0.00024136,-0.00009022
 ,-0.00126220,0.00004132,0.00014478,-0.00005212,-0.00001913,-0.00001719
 ,-0.00000342,0.00003000,-0.00002184,-0.00026466,0.00000826,0.00001244,
 -0.00000439,0.00002580,-0.00000311,-0.00000104,-0.00000194,-0.00001616
 ,-0.00001425,0.00002444,0.00556033,-0.00129995,-0.00166541,0.00003578,
 -0.00000956,-0.00000031,0.00002363,0.00001437,0.00000309,0.00001239,0.
 00001658,-0.00001644,-0.00000014,0.00000194,-0.00000075,-0.00000243,0.
 00000004,0.00000199,0.00000042,-0.00000169,-0.00000107,-0.16743315,-0.
 03452501,0.10012675\\-0.00001402,-0.00000458,0.00000600,0.00001379,0.0
 0001215,-0.00000931,-0.00000108,0.00000600,-0.00000684,0.00000355,0.00
 000056,0.00000660,0.00000753,-0.00000585,0.00001069,-0.00002764,0.0000
 0670,-0.00001810,-0.00000152,-0.00000104,0.00000497,0.00001078,-0.0000
 0227,0.00001591,0.00000788,0.00001548,0.00001548,0.00000573,0.00000217
 ,0.00000456,0.00001024,0.00001775,-0.00002049,-0.00000840,0.00001166,-
 0.00000044,-0.00001606,-0.00000632,-0.00001592,-0.00000722,-0.00000580
 ,-0.00000053,0.00000565,-0.00000002,-0.00000775,-0.00000322,-0.0000022
 3,-0.00000684,0.00000472,0.00002102,-0.00000224,-0.00001971,0.00000140
 ,-0.00000485,-0.00001520,-0.00000422,-0.00001964,-0.00000480,-0.000004
 04,-0.00001231,-0.00000568,-0.00000823,-0.00000932,-0.00000226,0.00001
 384,-0.00001008,0.00000301,0.00000330,-0.00000015,0.00000556,-0.000009
 15,0.00000515,0.00000646,-0.00001093,0.00000928,-0.00000053,0.00001153
 ,-0.00000083,0.00001955,0.00000926,0.00000778,-0.00000159,0.00000519,0
 .00000625,-0.00000593,-0.00001003,0.00001778,0.00001340,-0.00000275,0.
 00000168,0.00001128,0.00003495,0.00000319,-0.00000194,-0.00000924,0.00
 000070,-0.00001081,-0.00009541,-0.00000597,0.00001616,0.00004499,0.000
 00388,-0.00001025,-0.00000071,0.00000635,-0.00000442,0.00000819,0.0000
 0109,-0.00000108,-0.00000291,-0.00000014,-0.00000108,-0.00000766,-0.00
 001294,-0.00000037,-0.00000377,-0.00000588,-0.00000005,-0.00000988,-0.
 00000149,-0.00000647,0.00000140,0.00000479,0.00000243,0.00000851,0.000
 00521,-0.00001302,-0.00000729,0.00002125,0.00002092,-0.00000906,0.0000
 1406,0.00002622,-0.00000899,-0.00000922,0.00000056,-0.00000845,0.00000
 079,-0.00000723,0.00000625,0.00000362,0.00000083,-0.00000346,0.0000030
 1,-0.00000468,0.00000197,0.00000117\\\@


 YOU KNOW YOU'VE SPOKEN TOO LONG WHEN THE AUDIENCE STOPS LOOKING AT
 THEIR WATCHES AND STARTS SHAKING THEM.
 Job cpu time:       0 days  9 hours 31 minutes 27.9 seconds.
 File lengths (MBytes):  RWF=   3810 Int=      0 D2E=      0 Chk=     61 Scr=      1
 Normal termination of Gaussian 09 at Thu Nov 26 23:09:48 2020.
