 Entering Gaussian System, Link 0=g09
 Initial command:
 /ihome/crc/build/g09/g09-D.01/TAR/g09/l1.exe "/scratch/slurm-1999988/Gau-14782.inp" -scrdir="/scratch/slurm-1999988/"
 Entering Link 1 = /ihome/crc/build/g09/g09-D.01/TAR/g09/l1.exe PID=     14783.
  
 Copyright (c) 1988,1990,1992,1993,1995,1998,2003,2009,2013,
            Gaussian, Inc.  All Rights Reserved.
  
 This is part of the Gaussian(R) 09 program.  It is based on
 the Gaussian(R) 03 system (copyright 2003, Gaussian, Inc.),
 the Gaussian(R) 98 system (copyright 1998, Gaussian, Inc.),
 the Gaussian(R) 94 system (copyright 1995, Gaussian, Inc.),
 the Gaussian 92(TM) system (copyright 1992, Gaussian, Inc.),
 the Gaussian 90(TM) system (copyright 1990, Gaussian, Inc.),
 the Gaussian 88(TM) system (copyright 1988, Gaussian, Inc.),
 the Gaussian 86(TM) system (copyright 1986, Carnegie Mellon
 University), and the Gaussian 82(TM) system (copyright 1983,
 Carnegie Mellon University). Gaussian is a federally registered
 trademark of Gaussian, Inc.
  
 This software contains proprietary and confidential information,
 including trade secrets, belonging to Gaussian, Inc.
  
 This software is provided under written license and may be
 used, copied, transmitted, or stored only in accord with that
 written license.
  
 The following legend is applicable only to US Government
 contracts under FAR:
  
                    RESTRICTED RIGHTS LEGEND
  
 Use, reproduction and disclosure by the US Government is
 subject to restrictions as set forth in subparagraphs (a)
 and (c) of the Commercial Computer Software - Restricted
 Rights clause in FAR 52.227-19.
  
 Gaussian, Inc.
 340 Quinnipiac St., Bldg. 40, Wallingford CT 06492
  
  
 ---------------------------------------------------------------
 Warning -- This program may not be used in any manner that
 competes with the business of Gaussian, Inc. or will provide
 assistance to any competitor of Gaussian, Inc.  The licensee
 of this program is prohibited from giving any competitor of
 Gaussian, Inc. access to this program.  By using this program,
 the user acknowledges that Gaussian, Inc. is engaged in the
 business of creating and licensing software in the field of
 computational chemistry and represents and warrants to the
 licensee that it is not a competitor of Gaussian, Inc. and that
 it will not use this program in any manner prohibited above.
 ---------------------------------------------------------------
  

 Cite this work as:
 Gaussian 09, Revision D.01,
 M. J. Frisch, G. W. Trucks, H. B. Schlegel, G. E. Scuseria, 
 M. A. Robb, J. R. Cheeseman, G. Scalmani, V. Barone, B. Mennucci, 
 G. A. Petersson, H. Nakatsuji, M. Caricato, X. Li, H. P. Hratchian, 
 A. F. Izmaylov, J. Bloino, G. Zheng, J. L. Sonnenberg, M. Hada, 
 M. Ehara, K. Toyota, R. Fukuda, J. Hasegawa, M. Ishida, T. Nakajima, 
 Y. Honda, O. Kitao, H. Nakai, T. Vreven, J. A. Montgomery, Jr., 
 J. E. Peralta, F. Ogliaro, M. Bearpark, J. J. Heyd, E. Brothers, 
 K. N. Kudin, V. N. Staroverov, T. Keith, R. Kobayashi, J. Normand, 
 K. Raghavachari, A. Rendell, J. C. Burant, S. S. Iyengar, J. Tomasi, 
 M. Cossi, N. Rega, J. M. Millam, M. Klene, J. E. Knox, J. B. Cross, 
 V. Bakken, C. Adamo, J. Jaramillo, R. Gomperts, R. E. Stratmann, 
 O. Yazyev, A. J. Austin, R. Cammi, C. Pomelli, J. W. Ochterski, 
 R. L. Martin, K. Morokuma, V. G. Zakrzewski, G. A. Voth, 
 P. Salvador, J. J. Dannenberg, S. Dapprich, A. D. Daniels, 
 O. Farkas, J. B. Foresman, J. V. Ortiz, J. Cioslowski, 
 and D. J. Fox, Gaussian, Inc., Wallingford CT, 2013.
 
 ******************************************
 Gaussian 09:  EM64L-G09RevD.01 24-Apr-2013
                27-Nov-2020 
 ******************************************
 %nprocshared=12
 Will use up to   12 processors via shared memory.
 %mem=200gb
 ----------------------------------------------------------------------
 # opt freq=noraman 6-311g(d,p) scrf=(cpcm,solvent=water) geom=connecti
 vity m062x temperature=373
 ----------------------------------------------------------------------
 1/14=-1,18=20,19=15,26=3,38=1,57=2,112=373000/1,3;
 2/9=110,12=2,17=6,18=5,40=1/2;
 3/5=4,6=6,7=101,11=2,16=1,25=1,30=1,70=2101,71=1,72=1,74=-55/1,2,3;
 4//1;
 5/5=2,38=5,53=1/2;
 6/7=2,8=2,9=2,10=2,28=1/1;
 7//1,2,3,16;
 1/14=-1,18=20,19=15,26=3/3(2);
 2/9=110/2;
 99//99;
 2/9=110/2;
 3/5=4,6=6,7=101,11=2,16=1,25=1,30=1,70=2105,71=1,72=1,74=-55/1,2,3;
 4/5=5,16=3,69=1/1;
 5/5=2,38=5,53=1/2;
 7//1,2,3,16;
 1/14=-1,18=20,19=15,26=3/3(-5);
 2/9=110/2;
 6/7=2,8=2,9=2,10=2,19=2,28=1/1;
 99/9=1/99;
 -------------------
 Title Card Required
 -------------------
 Symbolic Z-matrix:
 Charge =  0 Multiplicity = 1
 O                     1.26243   1.35645  -1.58638 
 Si                    2.87215   1.59492  -1.52558 
 O                     3.3601    1.971    -0.0254 
 O                     0.02412   3.11476   0.3567 
 Si                    0.03823   2.36561   1.79677 
 O                     1.50164   1.84106   2.22292 
 O                    -0.59199   3.42379   2.94067 
 H                    -0.21277   4.30299   3.02046 
 O                     0.66227   3.93876  -2.32204 
 H                     1.60653   3.78432  -2.59745 
 O                     3.07654   2.93908  -2.51075 
 H                     3.93145   3.37656  -2.53513 
 O                     3.66348   0.30671  -2.10442 
 O                     3.47017  -0.32847   1.7361 
 O                     4.1469    2.23062   2.71735 
 H                     5.02189   1.91435   2.97369 
 O                     3.69023  -2.04766  -0.33101 
 Si                    3.55463  -1.89091   1.28338 
 O                     4.93082  -2.57751   1.89401 
 H                     5.00734  -2.56764   2.85072 
 O                     4.3113   -2.35089  -2.98036 
 H                     4.84977  -3.06634  -2.6181 
 O                    -1.0593    1.16158   1.84775 
 O                    -3.26701   1.85804   0.02603 
 Si                   -3.05578   1.71787  -1.58123 
 O                    -1.46973   1.96409  -1.94241 
 O                    -4.00572   2.81845  -2.36191 
 H                    -4.01447   3.70433  -1.99304 
 O                    -3.10818   2.62781   2.79247 
 H                    -2.27202   3.11565   3.02487 
 Si                   -3.39189  -1.66121   1.4556 
 O                    -3.58034  -0.18959   2.10866 
 O                    -2.61204  -1.6011    0.04612 
 O                    -3.47199   0.25939  -2.14399 
 O                    -4.85627  -1.87648  -1.50873 
 H                    -5.40421  -1.11284  -1.72832 
 O                    -4.85381  -2.38364   1.12815 
 H                    -5.51941  -2.44109   1.81828 
 Si                    0.29776  -1.67608  -1.43313 
 O                     0.68891  -1.22853   0.06214 
 O                    -1.10656  -0.81874  -2.01009 
 O                    -0.37378  -3.19936  -1.37893 
 H                    -1.17817  -3.29568  -1.94762 
 O                    -1.4537   -1.4443    2.32893 
 O                    -0.42817  -3.57858   1.19158 
 H                    -0.54025  -3.63021   0.19771 
 O                     2.24579  -2.6633    1.88699 
 O                     1.59216  -1.66094  -2.3934 
 Al                   -2.91816  -1.34402  -1.67645 
 Al                   -2.77845   1.24694   1.55841 
 Al                    0.01471   2.5238   -1.26845 
 Al                    2.99741   1.30497   1.53155 
 Al                    3.212    -1.34521  -1.82909 
 Al                    0.40714  -2.00839   1.66866 
 H                    -5.10633  -2.1698   -0.60569 
 H                    -3.85842   3.23263   2.76974 
 H                     0.16529   4.39102  -3.01294 
 H                     3.76088   2.72958   3.44872 
 H                     4.14574  -2.5152   -3.91702 
 H                    -1.32124  -3.50044   1.59867 
 

 GradGradGradGradGradGradGradGradGradGradGradGradGradGradGradGradGradGrad
 Berny optimization.
 Initialization pass.
                           ----------------------------
                           !    Initial Parameters    !
                           ! (Angstroms and Degrees)  !
 --------------------------                            --------------------------
 ! Name  Definition              Value          Derivative Info.                !
 --------------------------------------------------------------------------------
 ! R1    R(1,2)                  1.6284         estimate D2E/DX2                !
 ! R2    R(1,51)                 1.738          estimate D2E/DX2                !
 ! R3    R(2,3)                  1.6217         estimate D2E/DX2                !
 ! R4    R(2,11)                 1.679          estimate D2E/DX2                !
 ! R5    R(2,13)                 1.6189         estimate D2E/DX2                !
 ! R6    R(3,52)                 1.7318         estimate D2E/DX2                !
 ! R7    R(4,5)                  1.6233         estimate D2E/DX2                !
 ! R8    R(4,51)                 1.7293         estimate D2E/DX2                !
 ! R9    R(5,6)                  1.6119         estimate D2E/DX2                !
 ! R10   R(5,7)                  1.6809         estimate D2E/DX2                !
 ! R11   R(5,23)                 1.63           estimate D2E/DX2                !
 ! R12   R(6,52)                 1.7328         estimate D2E/DX2                !
 ! R13   R(7,8)                  0.9608         estimate D2E/DX2                !
 ! R14   R(9,10)                 0.9957         estimate D2E/DX2                !
 ! R15   R(9,51)                 1.8792         estimate D2E/DX2                !
 ! R16   R(9,57)                 0.9638         estimate D2E/DX2                !
 ! R17   R(11,12)                0.9607         estimate D2E/DX2                !
 ! R18   R(13,53)                1.7345         estimate D2E/DX2                !
 ! R19   R(14,18)                1.6289         estimate D2E/DX2                !
 ! R20   R(14,52)                1.7127         estimate D2E/DX2                !
 ! R21   R(15,16)                0.9651         estimate D2E/DX2                !
 ! R22   R(15,52)                1.8932         estimate D2E/DX2                !
 ! R23   R(15,58)                0.9658         estimate D2E/DX2                !
 ! R24   R(17,18)                1.6276         estimate D2E/DX2                !
 ! R25   R(17,53)                1.7223         estimate D2E/DX2                !
 ! R26   R(18,19)                1.6547         estimate D2E/DX2                !
 ! R27   R(18,47)                1.6352         estimate D2E/DX2                !
 ! R28   R(19,20)                0.9598         estimate D2E/DX2                !
 ! R29   R(21,22)                0.9659         estimate D2E/DX2                !
 ! R30   R(21,53)                1.8829         estimate D2E/DX2                !
 ! R31   R(21,59)                0.9653         estimate D2E/DX2                !
 ! R32   R(23,50)                1.7454         estimate D2E/DX2                !
 ! R33   R(24,25)                1.6271         estimate D2E/DX2                !
 ! R34   R(24,50)                1.7206         estimate D2E/DX2                !
 ! R35   R(25,26)                1.6452         estimate D2E/DX2                !
 ! R36   R(25,27)                1.6502         estimate D2E/DX2                !
 ! R37   R(25,34)                1.6177         estimate D2E/DX2                !
 ! R38   R(26,51)                1.7237         estimate D2E/DX2                !
 ! R39   R(27,28)                0.9597         estimate D2E/DX2                !
 ! R40   R(29,30)                0.9956         estimate D2E/DX2                !
 ! R41   R(29,50)                1.8811         estimate D2E/DX2                !
 ! R42   R(29,56)                0.9639         estimate D2E/DX2                !
 ! R43   R(31,32)                1.621          estimate D2E/DX2                !
 ! R44   R(31,33)                1.612          estimate D2E/DX2                !
 ! R45   R(31,37)                1.6632         estimate D2E/DX2                !
 ! R46   R(31,44)                2.1369         estimate D2E/DX2                !
 ! R47   R(32,50)                1.7348         estimate D2E/DX2                !
 ! R48   R(33,49)                1.7683         estimate D2E/DX2                !
 ! R49   R(34,49)                1.7596         estimate D2E/DX2                !
 ! R50   R(35,36)                0.9652         estimate D2E/DX2                !
 ! R51   R(35,49)                2.0169         estimate D2E/DX2                !
 ! R52   R(35,55)                0.9819         estimate D2E/DX2                !
 ! R53   R(37,38)                0.9605         estimate D2E/DX2                !
 ! R54   R(39,40)                1.6091         estimate D2E/DX2                !
 ! R55   R(39,41)                1.7436         estimate D2E/DX2                !
 ! R56   R(39,42)                1.6656         estimate D2E/DX2                !
 ! R57   R(39,48)                1.6118         estimate D2E/DX2                !
 ! R58   R(40,54)                1.8079         estimate D2E/DX2                !
 ! R59   R(41,49)                1.9155         estimate D2E/DX2                !
 ! R60   R(42,43)                0.9898         estimate D2E/DX2                !
 ! R61   R(44,54)                2.0535         estimate D2E/DX2                !
 ! R62   R(45,46)                1.0015         estimate D2E/DX2                !
 ! R63   R(45,54)                1.8414         estimate D2E/DX2                !
 ! R64   R(45,60)                0.9846         estimate D2E/DX2                !
 ! R65   R(47,54)                1.964          estimate D2E/DX2                !
 ! R66   R(48,53)                1.7441         estimate D2E/DX2                !
 ! A1    A(2,1,51)             127.1912         estimate D2E/DX2                !
 ! A2    A(1,2,3)              111.4643         estimate D2E/DX2                !
 ! A3    A(1,2,11)             102.4543         estimate D2E/DX2                !
 ! A4    A(1,2,13)             110.6908         estimate D2E/DX2                !
 ! A5    A(3,2,11)             108.6926         estimate D2E/DX2                !
 ! A6    A(3,2,13)             111.6054         estimate D2E/DX2                !
 ! A7    A(11,2,13)            111.5764         estimate D2E/DX2                !
 ! A8    A(2,3,52)             132.799          estimate D2E/DX2                !
 ! A9    A(5,4,51)             132.534          estimate D2E/DX2                !
 ! A10   A(4,5,6)              113.1156         estimate D2E/DX2                !
 ! A11   A(4,5,7)              108.0548         estimate D2E/DX2                !
 ! A12   A(4,5,23)             111.2713         estimate D2E/DX2                !
 ! A13   A(6,5,7)              111.4278         estimate D2E/DX2                !
 ! A14   A(6,5,23)             111.2628         estimate D2E/DX2                !
 ! A15   A(7,5,23)             101.0277         estimate D2E/DX2                !
 ! A16   A(5,6,52)             141.1558         estimate D2E/DX2                !
 ! A17   A(5,7,8)              118.9858         estimate D2E/DX2                !
 ! A18   A(10,9,51)            111.4133         estimate D2E/DX2                !
 ! A19   A(10,9,57)            111.3175         estimate D2E/DX2                !
 ! A20   A(51,9,57)            125.2781         estimate D2E/DX2                !
 ! A21   A(2,11,12)            119.1961         estimate D2E/DX2                !
 ! A22   A(2,13,53)            125.0203         estimate D2E/DX2                !
 ! A23   A(18,14,52)           153.6254         estimate D2E/DX2                !
 ! A24   A(16,15,52)           123.8225         estimate D2E/DX2                !
 ! A25   A(16,15,58)           109.3012         estimate D2E/DX2                !
 ! A26   A(52,15,58)           118.9605         estimate D2E/DX2                !
 ! A27   A(18,17,53)           143.1599         estimate D2E/DX2                !
 ! A28   A(14,18,17)           111.8619         estimate D2E/DX2                !
 ! A29   A(14,18,19)           109.7891         estimate D2E/DX2                !
 ! A30   A(14,18,47)           107.9976         estimate D2E/DX2                !
 ! A31   A(17,18,19)           104.8783         estimate D2E/DX2                !
 ! A32   A(17,18,47)           112.7875         estimate D2E/DX2                !
 ! A33   A(19,18,47)           109.4786         estimate D2E/DX2                !
 ! A34   A(18,19,20)           115.4591         estimate D2E/DX2                !
 ! A35   A(22,21,53)           119.4562         estimate D2E/DX2                !
 ! A36   A(22,21,59)           109.4785         estimate D2E/DX2                !
 ! A37   A(53,21,59)           125.7389         estimate D2E/DX2                !
 ! A38   A(5,23,50)            128.4543         estimate D2E/DX2                !
 ! A39   A(25,24,50)           144.3208         estimate D2E/DX2                !
 ! A40   A(24,25,26)           109.215          estimate D2E/DX2                !
 ! A41   A(24,25,27)           109.58           estimate D2E/DX2                !
 ! A42   A(24,25,34)           112.8232         estimate D2E/DX2                !
 ! A43   A(26,25,27)           110.5664         estimate D2E/DX2                !
 ! A44   A(26,25,34)           107.8539         estimate D2E/DX2                !
 ! A45   A(27,25,34)           106.7742         estimate D2E/DX2                !
 ! A46   A(25,26,51)           142.4677         estimate D2E/DX2                !
 ! A47   A(25,27,28)           116.0448         estimate D2E/DX2                !
 ! A48   A(30,29,50)           111.4465         estimate D2E/DX2                !
 ! A49   A(30,29,56)           110.5934         estimate D2E/DX2                !
 ! A50   A(50,29,56)           125.5596         estimate D2E/DX2                !
 ! A51   A(32,31,33)           112.0036         estimate D2E/DX2                !
 ! A52   A(32,31,37)           111.8053         estimate D2E/DX2                !
 ! A53   A(32,31,44)            81.2945         estimate D2E/DX2                !
 ! A54   A(33,31,37)           105.6218         estimate D2E/DX2                !
 ! A55   A(33,31,44)            85.1105         estimate D2E/DX2                !
 ! A56   A(37,31,44)           157.1877         estimate D2E/DX2                !
 ! A57   A(31,32,50)           124.7671         estimate D2E/DX2                !
 ! A58   A(31,33,49)           140.6623         estimate D2E/DX2                !
 ! A59   A(25,34,49)           130.399          estimate D2E/DX2                !
 ! A60   A(36,35,49)           108.5256         estimate D2E/DX2                !
 ! A61   A(36,35,55)           107.5191         estimate D2E/DX2                !
 ! A62   A(49,35,55)           113.583          estimate D2E/DX2                !
 ! A63   A(31,37,38)           119.5782         estimate D2E/DX2                !
 ! A64   A(40,39,41)           111.5013         estimate D2E/DX2                !
 ! A65   A(40,39,42)           108.7923         estimate D2E/DX2                !
 ! A66   A(40,39,48)           110.8433         estimate D2E/DX2                !
 ! A67   A(41,39,42)            97.8013         estimate D2E/DX2                !
 ! A68   A(41,39,48)           116.4273         estimate D2E/DX2                !
 ! A69   A(42,39,48)           110.5954         estimate D2E/DX2                !
 ! A70   A(39,40,54)           131.905          estimate D2E/DX2                !
 ! A71   A(39,41,49)           124.6989         estimate D2E/DX2                !
 ! A72   A(39,42,43)           113.4499         estimate D2E/DX2                !
 ! A73   A(31,44,54)           131.5003         estimate D2E/DX2                !
 ! A74   A(46,45,54)           110.5996         estimate D2E/DX2                !
 ! A75   A(46,45,60)           108.2336         estimate D2E/DX2                !
 ! A76   A(54,45,60)           103.6898         estimate D2E/DX2                !
 ! A77   A(18,47,54)           123.4205         estimate D2E/DX2                !
 ! A78   A(39,48,53)           123.6966         estimate D2E/DX2                !
 ! A79   A(33,49,34)           116.4738         estimate D2E/DX2                !
 ! A80   A(33,49,35)            92.6918         estimate D2E/DX2                !
 ! A81   A(33,49,41)            92.6258         estimate D2E/DX2                !
 ! A82   A(34,49,35)            87.7194         estimate D2E/DX2                !
 ! A83   A(34,49,41)            90.0867         estimate D2E/DX2                !
 ! A84   A(23,50,24)           116.4032         estimate D2E/DX2                !
 ! A85   A(23,50,29)            95.7277         estimate D2E/DX2                !
 ! A86   A(23,50,32)           111.2362         estimate D2E/DX2                !
 ! A87   A(24,50,29)           105.8899         estimate D2E/DX2                !
 ! A88   A(24,50,32)           116.4459         estimate D2E/DX2                !
 ! A89   A(29,50,32)           108.5886         estimate D2E/DX2                !
 ! A90   A(1,51,4)             113.4239         estimate D2E/DX2                !
 ! A91   A(1,51,9)              98.9623         estimate D2E/DX2                !
 ! A92   A(1,51,26)            109.1862         estimate D2E/DX2                !
 ! A93   A(4,51,9)             105.5278         estimate D2E/DX2                !
 ! A94   A(4,51,26)            118.8889         estimate D2E/DX2                !
 ! A95   A(9,51,26)            108.787          estimate D2E/DX2                !
 ! A96   A(3,52,6)             114.8653         estimate D2E/DX2                !
 ! A97   A(3,52,14)            114.604          estimate D2E/DX2                !
 ! A98   A(3,52,15)            104.3536         estimate D2E/DX2                !
 ! A99   A(6,52,14)            119.0556         estimate D2E/DX2                !
 ! A100  A(6,52,15)             97.0613         estimate D2E/DX2                !
 ! A101  A(14,52,15)           102.9383         estimate D2E/DX2                !
 ! A102  A(13,53,17)           117.0154         estimate D2E/DX2                !
 ! A103  A(13,53,21)           105.0499         estimate D2E/DX2                !
 ! A104  A(13,53,48)           111.2715         estimate D2E/DX2                !
 ! A105  A(17,53,21)            98.736          estimate D2E/DX2                !
 ! A106  A(17,53,48)           117.7405         estimate D2E/DX2                !
 ! A107  A(21,53,48)           104.3425         estimate D2E/DX2                !
 ! A108  A(40,54,44)           107.9659         estimate D2E/DX2                !
 ! A109  A(40,54,45)           102.0227         estimate D2E/DX2                !
 ! A110  A(40,54,47)            95.5503         estimate D2E/DX2                !
 ! A111  A(44,54,45)            84.6338         estimate D2E/DX2                !
 ! A112  A(44,54,47)           154.7172         estimate D2E/DX2                !
 ! A113  A(45,54,47)            99.7373         estimate D2E/DX2                !
 ! A114  L(35,49,41,33,-1)     185.3176         estimate D2E/DX2                !
 ! A115  L(35,49,41,33,-2)     179.8028         estimate D2E/DX2                !
 ! D1    D(51,1,2,3)            63.5553         estimate D2E/DX2                !
 ! D2    D(51,1,2,11)          -52.5176         estimate D2E/DX2                !
 ! D3    D(51,1,2,13)         -171.5945         estimate D2E/DX2                !
 ! D4    D(2,1,51,4)           -63.0915         estimate D2E/DX2                !
 ! D5    D(2,1,51,9)            48.2349         estimate D2E/DX2                !
 ! D6    D(2,1,51,26)          161.8183         estimate D2E/DX2                !
 ! D7    D(1,2,3,52)            45.5267         estimate D2E/DX2                !
 ! D8    D(11,2,3,52)          157.716          estimate D2E/DX2                !
 ! D9    D(13,2,3,52)          -78.8105         estimate D2E/DX2                !
 ! D10   D(1,2,11,12)          170.3076         estimate D2E/DX2                !
 ! D11   D(3,2,11,12)           52.2518         estimate D2E/DX2                !
 ! D12   D(13,2,11,12)         -71.2391         estimate D2E/DX2                !
 ! D13   D(1,2,13,53)          -39.2116         estimate D2E/DX2                !
 ! D14   D(3,2,13,53)           85.5586         estimate D2E/DX2                !
 ! D15   D(11,2,13,53)        -152.6183         estimate D2E/DX2                !
 ! D16   D(2,3,52,6)           -80.9608         estimate D2E/DX2                !
 ! D17   D(2,3,52,14)           62.2606         estimate D2E/DX2                !
 ! D18   D(2,3,52,15)          174.061          estimate D2E/DX2                !
 ! D19   D(51,4,5,6)            79.5254         estimate D2E/DX2                !
 ! D20   D(51,4,5,7)          -156.6304         estimate D2E/DX2                !
 ! D21   D(51,4,5,23)          -46.5826         estimate D2E/DX2                !
 ! D22   D(5,4,51,1)           -51.3095         estimate D2E/DX2                !
 ! D23   D(5,4,51,9)          -158.5619         estimate D2E/DX2                !
 ! D24   D(5,4,51,26)           79.0897         estimate D2E/DX2                !
 ! D25   D(4,5,6,52)           -27.9768         estimate D2E/DX2                !
 ! D26   D(7,5,6,52)          -149.9503         estimate D2E/DX2                !
 ! D27   D(23,5,6,52)           98.1356         estimate D2E/DX2                !
 ! D28   D(4,5,7,8)            -53.4416         estimate D2E/DX2                !
 ! D29   D(6,5,7,8)             71.4141         estimate D2E/DX2                !
 ! D30   D(23,5,7,8)          -170.3316         estimate D2E/DX2                !
 ! D31   D(4,5,23,50)          -56.4047         estimate D2E/DX2                !
 ! D32   D(6,5,23,50)          176.4704         estimate D2E/DX2                !
 ! D33   D(7,5,23,50)           58.0964         estimate D2E/DX2                !
 ! D34   D(5,6,52,3)            28.4803         estimate D2E/DX2                !
 ! D35   D(5,6,52,14)         -113.0034         estimate D2E/DX2                !
 ! D36   D(5,6,52,15)          137.9149         estimate D2E/DX2                !
 ! D37   D(10,9,51,1)          -13.9411         estimate D2E/DX2                !
 ! D38   D(10,9,51,4)          103.5435         estimate D2E/DX2                !
 ! D39   D(10,9,51,26)        -127.8368         estimate D2E/DX2                !
 ! D40   D(57,9,51,1)          125.152          estimate D2E/DX2                !
 ! D41   D(57,9,51,4)         -117.3634         estimate D2E/DX2                !
 ! D42   D(57,9,51,26)          11.2563         estimate D2E/DX2                !
 ! D43   D(2,13,53,17)         -81.2171         estimate D2E/DX2                !
 ! D44   D(2,13,53,21)         170.5046         estimate D2E/DX2                !
 ! D45   D(2,13,53,48)          58.1741         estimate D2E/DX2                !
 ! D46   D(52,14,18,17)         35.1218         estimate D2E/DX2                !
 ! D47   D(52,14,18,19)        151.123          estimate D2E/DX2                !
 ! D48   D(52,14,18,47)        -89.5688         estimate D2E/DX2                !
 ! D49   D(18,14,52,3)         -49.0268         estimate D2E/DX2                !
 ! D50   D(18,14,52,6)          92.5527         estimate D2E/DX2                !
 ! D51   D(18,14,52,15)       -161.6683         estimate D2E/DX2                !
 ! D52   D(16,15,52,3)         -92.6324         estimate D2E/DX2                !
 ! D53   D(16,15,52,6)         149.395          estimate D2E/DX2                !
 ! D54   D(16,15,52,14)         27.3506         estimate D2E/DX2                !
 ! D55   D(58,15,52,3)         121.7267         estimate D2E/DX2                !
 ! D56   D(58,15,52,6)           3.754          estimate D2E/DX2                !
 ! D57   D(58,15,52,14)       -118.2904         estimate D2E/DX2                !
 ! D58   D(53,17,18,14)        -33.9002         estimate D2E/DX2                !
 ! D59   D(53,17,18,19)       -152.85           estimate D2E/DX2                !
 ! D60   D(53,17,18,47)         88.0823         estimate D2E/DX2                !
 ! D61   D(18,17,53,13)         58.8742         estimate D2E/DX2                !
 ! D62   D(18,17,53,21)        170.7893         estimate D2E/DX2                !
 ! D63   D(18,17,53,48)        -77.8655         estimate D2E/DX2                !
 ! D64   D(14,18,19,20)         59.726          estimate D2E/DX2                !
 ! D65   D(17,18,19,20)       -179.9387         estimate D2E/DX2                !
 ! D66   D(47,18,19,20)        -58.6702         estimate D2E/DX2                !
 ! D67   D(14,18,47,54)         50.2418         estimate D2E/DX2                !
 ! D68   D(17,18,47,54)        -73.8939         estimate D2E/DX2                !
 ! D69   D(19,18,47,54)        169.7465         estimate D2E/DX2                !
 ! D70   D(22,21,53,13)        125.8236         estimate D2E/DX2                !
 ! D71   D(22,21,53,17)          4.6789         estimate D2E/DX2                !
 ! D72   D(22,21,53,48)       -117.0144         estimate D2E/DX2                !
 ! D73   D(59,21,53,13)        -82.7493         estimate D2E/DX2                !
 ! D74   D(59,21,53,17)        156.106          estimate D2E/DX2                !
 ! D75   D(59,21,53,48)         34.4128         estimate D2E/DX2                !
 ! D76   D(5,23,50,24)          57.6264         estimate D2E/DX2                !
 ! D77   D(5,23,50,29)         -53.2902         estimate D2E/DX2                !
 ! D78   D(5,23,50,32)        -165.7905         estimate D2E/DX2                !
 ! D79   D(50,24,25,26)        -57.933          estimate D2E/DX2                !
 ! D80   D(50,24,25,27)       -179.186          estimate D2E/DX2                !
 ! D81   D(50,24,25,34)         61.9965         estimate D2E/DX2                !
 ! D82   D(25,24,50,23)         50.8885         estimate D2E/DX2                !
 ! D83   D(25,24,50,29)        155.7914         estimate D2E/DX2                !
 ! D84   D(25,24,50,32)        -83.427          estimate D2E/DX2                !
 ! D85   D(24,25,26,51)        -11.6639         estimate D2E/DX2                !
 ! D86   D(27,25,26,51)        108.9881         estimate D2E/DX2                !
 ! D87   D(34,25,26,51)       -134.6079         estimate D2E/DX2                !
 ! D88   D(24,25,27,28)         44.1343         estimate D2E/DX2                !
 ! D89   D(26,25,27,28)        -76.2999         estimate D2E/DX2                !
 ! D90   D(34,25,27,28)        166.628          estimate D2E/DX2                !
 ! D91   D(24,25,34,49)        -55.8046         estimate D2E/DX2                !
 ! D92   D(26,25,34,49)         64.9052         estimate D2E/DX2                !
 ! D93   D(27,25,34,49)       -176.2422         estimate D2E/DX2                !
 ! D94   D(25,26,51,1)         130.1679         estimate D2E/DX2                !
 ! D95   D(25,26,51,4)          -2.1106         estimate D2E/DX2                !
 ! D96   D(25,26,51,9)        -122.8185         estimate D2E/DX2                !
 ! D97   D(30,29,50,23)         18.4598         estimate D2E/DX2                !
 ! D98   D(30,29,50,24)       -101.0929         estimate D2E/DX2                !
 ! D99   D(30,29,50,32)        133.1556         estimate D2E/DX2                !
 ! D100  D(56,29,50,23)        156.6491         estimate D2E/DX2                !
 ! D101  D(56,29,50,24)         37.0964         estimate D2E/DX2                !
 ! D102  D(56,29,50,32)        -88.6551         estimate D2E/DX2                !
 ! D103  D(33,31,32,50)        -11.8169         estimate D2E/DX2                !
 ! D104  D(37,31,32,50)       -130.1433         estimate D2E/DX2                !
 ! D105  D(44,31,32,50)         69.2734         estimate D2E/DX2                !
 ! D106  D(32,31,33,49)        -85.1747         estimate D2E/DX2                !
 ! D107  D(37,31,33,49)         36.7628         estimate D2E/DX2                !
 ! D108  D(44,31,33,49)       -163.7307         estimate D2E/DX2                !
 ! D109  D(32,31,37,38)        -51.8239         estimate D2E/DX2                !
 ! D110  D(33,31,37,38)       -173.889          estimate D2E/DX2                !
 ! D111  D(44,31,37,38)         70.2299         estimate D2E/DX2                !
 ! D112  D(32,31,44,54)       -142.1482         estimate D2E/DX2                !
 ! D113  D(33,31,44,54)        -28.9748         estimate D2E/DX2                !
 ! D114  D(37,31,44,54)         90.6093         estimate D2E/DX2                !
 ! D115  D(31,32,50,23)        -67.0412         estimate D2E/DX2                !
 ! D116  D(31,32,50,24)         69.5219         estimate D2E/DX2                !
 ! D117  D(31,32,50,29)       -171.1437         estimate D2E/DX2                !
 ! D118  D(31,33,49,34)         66.0044         estimate D2E/DX2                !
 ! D119  D(31,33,49,35)        -22.7872         estimate D2E/DX2                !
 ! D120  D(31,33,49,41)        157.41           estimate D2E/DX2                !
 ! D121  D(25,34,49,33)         37.4405         estimate D2E/DX2                !
 ! D122  D(25,34,49,35)        129.3128         estimate D2E/DX2                !
 ! D123  D(25,34,49,41)        -55.5364         estimate D2E/DX2                !
 ! D124  D(36,35,49,33)        116.3236         estimate D2E/DX2                !
 ! D125  D(36,35,49,34)         -0.0846         estimate D2E/DX2                !
 ! D126  D(55,35,49,33)         -3.1937         estimate D2E/DX2                !
 ! D127  D(55,35,49,34)       -119.6019         estimate D2E/DX2                !
 ! D128  D(41,39,40,54)        101.3123         estimate D2E/DX2                !
 ! D129  D(42,39,40,54)         -5.4351         estimate D2E/DX2                !
 ! D130  D(48,39,40,54)       -127.248          estimate D2E/DX2                !
 ! D131  D(40,39,41,49)        -85.1758         estimate D2E/DX2                !
 ! D132  D(42,39,41,49)         28.6176         estimate D2E/DX2                !
 ! D133  D(48,39,41,49)        146.3004         estimate D2E/DX2                !
 ! D134  D(40,39,42,43)        136.5321         estimate D2E/DX2                !
 ! D135  D(41,39,42,43)         20.5941         estimate D2E/DX2                !
 ! D136  D(48,39,42,43)       -101.5042         estimate D2E/DX2                !
 ! D137  D(40,39,48,53)          5.3306         estimate D2E/DX2                !
 ! D138  D(41,39,48,53)        134.1728         estimate D2E/DX2                !
 ! D139  D(42,39,48,53)       -115.42           estimate D2E/DX2                !
 ! D140  D(39,40,54,44)        -85.861          estimate D2E/DX2                !
 ! D141  D(39,40,54,45)          2.3361         estimate D2E/DX2                !
 ! D142  D(39,40,54,47)        103.5477         estimate D2E/DX2                !
 ! D143  D(39,41,49,33)         47.0747         estimate D2E/DX2                !
 ! D144  D(39,41,49,34)        163.583          estimate D2E/DX2                !
 ! D145  D(31,44,54,40)         57.5362         estimate D2E/DX2                !
 ! D146  D(31,44,54,45)        -43.3863         estimate D2E/DX2                !
 ! D147  D(31,44,54,47)       -144.8578         estimate D2E/DX2                !
 ! D148  D(46,45,54,40)         -0.7597         estimate D2E/DX2                !
 ! D149  D(46,45,54,44)        106.5029         estimate D2E/DX2                !
 ! D150  D(46,45,54,47)        -98.6271         estimate D2E/DX2                !
 ! D151  D(60,45,54,40)       -116.5828         estimate D2E/DX2                !
 ! D152  D(60,45,54,44)         -9.3202         estimate D2E/DX2                !
 ! D153  D(60,45,54,47)        145.5498         estimate D2E/DX2                !
 ! D154  D(18,47,54,40)         31.307          estimate D2E/DX2                !
 ! D155  D(18,47,54,44)       -127.3405         estimate D2E/DX2                !
 ! D156  D(18,47,54,45)        134.5461         estimate D2E/DX2                !
 ! D157  D(39,48,53,13)        -98.2528         estimate D2E/DX2                !
 ! D158  D(39,48,53,17)         40.8146         estimate D2E/DX2                !
 ! D159  D(39,48,53,21)        148.97           estimate D2E/DX2                !
 --------------------------------------------------------------------------------
 Trust Radius=3.00D-01 FncErr=1.00D-07 GrdErr=1.00D-06
 Number of steps in this run=    350 maximum allowed number of steps=    360.
 GradGradGradGradGradGradGradGradGradGradGradGradGradGradGradGradGradGrad

 Stoichiometry    Al6H18O30Si6
 Framework group  C1[X(Al6H18O30Si6)]
 Deg. of freedom   174
 Full point group                 C1      NOp   1
 Largest Abelian subgroup         C1      NOp   1
 Largest concise Abelian subgroup C1      NOp   1
                         Standard orientation:                         
 ---------------------------------------------------------------------
 Center     Atomic      Atomic             Coordinates (Angstroms)
 Number     Number       Type             X           Y           Z
 ---------------------------------------------------------------------
      1          8           0        1.110627    1.349361   -1.542620
      2         14           0        2.697070    1.704867   -1.450083
      3          8           0        3.131047    2.092478    0.063683
      4          8           0       -0.286248    2.981113    0.403337
      5         14           0       -0.240532    2.212698    1.832554
      6          8           0        1.250445    1.790875    2.276848
      7          8           0       -0.966082    3.203581    2.980218
      8          1           0       -0.654309    4.106996    3.079256
      9          8           0        0.333314    3.891558   -2.251680
     10          1           0        1.290825    3.811453   -2.512606
     11          8           0        2.817693    3.075624   -2.412152
     12          1           0        3.638185    3.575267   -2.415211
     13          8           0        3.590970    0.487674   -2.033291
     14          8           0        3.381824   -0.219794    1.793743
     15          8           0        3.851119    2.366624    2.823304
     16          1           0        4.742760    2.111754    3.090451
     17          8           0        3.762534   -1.885663   -0.293579
     18         14           0        3.589090   -1.764508    1.320243
     19          8           0        5.002034   -2.357224    1.945116
     20          1           0        5.061824   -2.356649    2.903072
     21          8           0        4.447966   -2.100964   -2.935657
     22          1           0        5.031828   -2.780328   -2.574258
     23          8           0       -1.246674    0.930388    1.846953
     24          8           0       -3.469493    1.490514   -0.003192
     25         14           0       -3.221984    1.391354   -1.608322
     26          8           0       -1.652749    1.759419   -1.937957
     27          8           0       -4.237730    2.430947   -2.389767
     28          1           0       -4.318068    3.307919   -2.008458
     29          8           0       -3.413707    2.226691    2.776364
     30          1           0       -2.619873    2.771166    3.030407
     31         14           0       -3.357279   -2.050213    1.373410
     32          8           0       -3.664824   -0.606850    2.044061
     33          8           0       -2.560861   -1.910830   -0.021113
     34          8           0       -3.519833   -0.084887   -2.199155
     35          8           0       -4.752617   -2.326629   -1.619017
     36          1           0       -5.351840   -1.602133   -1.837263
     37          8           0       -4.756158   -2.873258    1.009961
     38          1           0       -5.426982   -2.990369    1.687375
     39         14           0        0.370521   -1.748043   -1.449828
     40          8           0        0.702762   -1.296229    0.058352
     41          8           0       -1.083656   -0.987668   -2.039081
     42          8           0       -0.187299   -3.317343   -1.429277
     43          1           0       -0.972869   -3.463824   -2.013359
     44          8           0       -1.455117   -1.704655    2.283745
     45          8           0       -0.255895   -3.739550    1.134181
     46          1           0       -0.347434   -3.783811    0.137850
     47          8           0        2.331196   -2.640593    1.889592
     48          8           0        1.675916   -1.622561   -2.386844
     49         13           0       -2.856698   -1.650200   -1.744949
     50         13           0       -2.962422    0.893287    1.528651
     51         13           0       -0.225110    2.416468   -1.230026
     52         13           0        2.792980    1.377340    1.604311
     53         13           0        3.258441   -1.197119   -1.789639
     54         13           0        0.452989   -2.119681    1.648333
     55          1           0       -4.995159   -2.651621   -0.724812
     56          1           0       -4.206162    2.774840    2.749088
     57          1           0       -0.184292    4.316667   -2.944674
     58          1           0        3.417239    2.824309    3.554828
     59          1           0        4.310484   -2.262419   -3.877346
     60          1           0       -1.158894   -3.733810    1.526558
 ---------------------------------------------------------------------
 Rotational constants (GHZ):      0.0808452      0.0551897      0.0503520
 Standard basis: 6-311G(d,p) (5D, 7F)
 There are  1002 symmetry adapted cartesian basis functions of A   symmetry.
 There are   960 symmetry adapted basis functions of A   symmetry.
   960 basis functions,  1656 primitive gaussians,  1002 cartesian basis functions
   210 alpha electrons      210 beta electrons
       nuclear repulsion energy     10286.0491426988 Hartrees.
 NAtoms=   60 NActive=   60 NUniq=   60 SFac= 1.00D+00 NAtFMM=   60 NAOKFM=T Big=T
 Integral buffers will be    131072 words long.
 Raffenetti 2 integral format.
 Two-electron integral symmetry is turned on.
 ------------------------------------------------------------------------------
 Polarizable Continuum Model (PCM)
 =================================
 Model                : C-PCM.
 Atomic radii         : UFF (Universal Force Field).
 Polarization charges : Total charges.
 Charge compensation  : None.
 Solution method      : On-the-fly selection.
 Cavity type          : Scaled VdW (van der Waals Surface) (Alpha=1.100).
 Cavity algorithm     : GePol (No added spheres)
                        Default sphere list used, NSphG=   60.
                        Lebedev-Laikov grids with approx.  5.0 points / Ang**2.
                        Smoothing algorithm: Karplus/York (Gamma=1.0000).
                        Polarization charges: spherical gaussians, with
                                              point-specific exponents (IZeta= 3).
                        Self-potential: point-specific (ISelfS= 7).
                        Self-field    : sphere-specific E.n sum rule (ISelfD= 2).
 1st derivatives      : Analytical E(r).r(x)/FMM algorithm (CHGder, D1EAlg=3).
                        Cavity 1st derivative terms included.
 Solvent              : Water, Eps=  78.355300 Eps(inf)=   1.777849
 ------------------------------------------------------------------------------
 One-electron integrals computed using PRISM.
 NBasis=   960 RedAO= T EigKep=  2.81D-03  NBF=   960
 NBsUse=   960 1.00D-06 EigRej= -1.00D+00 NBFU=   960
 ExpMin= 4.14D-02 ExpMax= 6.94D+04 ExpMxC= 2.33D+03 IAcc=2 IRadAn=         4 AccDes= 0.00D+00
 Harris functional with IExCor= 1009 and IRadAn=       4 diagonalized for initial guess.
 HarFok:  IExCor= 1009 AccDes= 0.00D+00 IRadAn=         4 IDoV= 1 UseB2=F ITyADJ=14
 ICtDFT=  3500011 ScaDFX=  1.000000  1.000000  1.000000  1.000000
 FoFCou: FMM=F IPFlag=           0 FMFlag=      100000 FMFlg1=        2001
         NFxFlg=           0 DoJE=T BraDBF=F KetDBF=T FulRan=T
         wScrn=  0.000000 ICntrl=     500 IOpCl=  0 I1Cent=   200000004 NGrid=           0
         NMat0=    1 NMatS0=      1 NMatT0=    0 NMatD0=    1 NMtDS0=    0 NMtDT0=    0
 Petite list used in FoFCou.
 Requested convergence on RMS density matrix=1.00D-08 within 128 cycles.
 Requested convergence on MAX density matrix=1.00D-06.
 Requested convergence on             energy=1.00D-06.
 No special actions if energy rises.
 Inv3:  Mode=1 IEnd=    64310700.
 Iteration    1 A*A^-1 deviation from unit magnitude is 1.05D-14 for   4215.
 Iteration    1 A*A^-1 deviation from orthogonality  is 8.05D-15 for   4151   3248.
 Iteration    1 A^-1*A deviation from unit magnitude is 1.05D-14 for   4215.
 Iteration    1 A^-1*A deviation from orthogonality  is 8.22D-15 for   3873   2986.
 Error on total polarization charges =  0.01356
 SCF Done:  E(RM062X) =  -5461.39546736     A.U. after   16 cycles
            NFock= 16  Conv=0.34D-08     -V/T= 2.0023

 **********************************************************************

            Population analysis using the SCF density.

 **********************************************************************

 Orbital symmetries:
       Occupied  (A) (A) (A) (A) (A) (A) (A) (A) (A) (A) (A) (A)
                 (A) (A) (A) (A) (A) (A) (A) (A) (A) (A) (A) (A)
                 (A) (A) (A) (A) (A) (A) (A) (A) (A) (A) (A) (A)
                 (A) (A) (A) (A) (A) (A) (A) (A) (A) (A) (A) (A)
                 (A) (A) (A) (A) (A) (A) (A) (A) (A) (A) (A) (A)
                 (A) (A) (A) (A) (A) (A) (A) (A) (A) (A) (A) (A)
                 (A) (A) (A) (A) (A) (A) (A) (A) (A) (A) (A) (A)
                 (A) (A) (A) (A) (A) (A) (A) (A) (A) (A) (A) (A)
                 (A) (A) (A) (A) (A) (A) (A) (A) (A) (A) (A) (A)
                 (A) (A) (A) (A) (A) (A) (A) (A) (A) (A) (A) (A)
                 (A) (A) (A) (A) (A) (A) (A) (A) (A) (A) (A) (A)
                 (A) (A) (A) (A) (A) (A) (A) (A) (A) (A) (A) (A)
                 (A) (A) (A) (A) (A) (A) (A) (A) (A) (A) (A) (A)
                 (A) (A) (A) (A) (A) (A) (A) (A) (A) (A) (A) (A)
                 (A) (A) (A) (A) (A) (A) (A) (A) (A) (A) (A) (A)
                 (A) (A) (A) (A) (A) (A) (A) (A) (A) (A) (A) (A)
                 (A) (A) (A) (A) (A) (A) (A) (A) (A) (A) (A) (A)
                 (A) (A) (A) (A) (A) (A)
       Virtual   (A) (A) (A) (A) (A) (A) (A) (A) (A) (A) (A) (A)
                 (A) (A) (A) (A) (A) (A) (A) (A) (A) (A) (A) (A)
                 (A) (A) (A) (A) (A) (A) (A) (A) (A) (A) (A) (A)
                 (A) (A) (A) (A) (A) (A) (A) (A) (A) (A) (A) (A)
                 (A) (A) (A) (A) (A) (A) (A) (A) (A) (A) (A) (A)
                 (A) (A) (A) (A) (A) (A) (A) (A) (A) (A) (A) (A)
                 (A) (A) (A) (A) (A) (A) (A) (A) (A) (A) (A) (A)
                 (A) (A) (A) (A) (A) (A) (A) (A) (A) (A) (A) (A)
                 (A) (A) (A) (A) (A) (A) (A) (A) (A) (A) (A) (A)
                 (A) (A) (A) (A) (A) (A) (A) (A) (A) (A) (A) (A)
                 (A) (A) (A) (A) (A) (A) (A) (A) (A) (A) (A) (A)
                 (A) (A) (A) (A) (A) (A) (A) (A) (A) (A) (A) (A)
                 (A) (A) (A) (A) (A) (A) (A) (A) (A) (A) (A) (A)
                 (A) (A) (A) (A) (A) (A) (A) (A) (A) (A) (A) (A)
                 (A) (A) (A) (A) (A) (A) (A) (A) (A) (A) (A) (A)
                 (A) (A) (A) (A) (A) (A) (A) (A) (A) (A) (A) (A)
                 (A) (A) (A) (A) (A) (A) (A) (A) (A) (A) (A) (A)
                 (A) (A) (A) (A) (A) (A) (A) (A) (A) (A) (A) (A)
                 (A) (A) (A) (A) (A) (A) (A) (A) (A) (A) (A) (A)
                 (A) (A) (A) (A) (A) (A) (A) (A) (A) (A) (A) (A)
                 (A) (A) (A) (A) (A) (A) (A) (A) (A) (A) (A) (A)
                 (A) (A) (A) (A) (A) (A) (A) (A) (A) (A) (A) (A)
                 (A) (A) (A) (A) (A) (A) (A) (A) (A) (A) (A) (A)
                 (A) (A) (A) (A) (A) (A) (A) (A) (A) (A) (A) (A)
                 (A) (A) (A) (A) (A) (A) (A) (A) (A) (A) (A) (A)
                 (A) (A) (A) (A) (A) (A) (A) (A) (A) (A) (A) (A)
                 (A) (A) (A) (A) (A) (A) (A) (A) (A) (A) (A) (A)
                 (A) (A) (A) (A) (A) (A) (A) (A) (A) (A) (A) (A)
                 (A) (A) (A) (A) (A) (A) (A) (A) (A) (A) (A) (A)
                 (A) (A) (A) (A) (A) (A) (A) (A) (A) (A) (A) (A)
                 (A) (A) (A) (A) (A) (A) (A) (A) (A) (A) (A) (A)
                 (A) (A) (A) (A) (A) (A) (A) (A) (A) (A) (A) (A)
                 (A) (A) (A) (A) (A) (A) (A) (A) (A) (A) (A) (A)
                 (A) (A) (A) (A) (A) (A) (A) (A) (A) (A) (A) (A)
                 (A) (A) (A) (A) (A) (A) (A) (A) (A) (A) (A) (A)
                 (A) (A) (A) (A) (A) (A) (A) (A) (A) (A) (A) (A)
                 (A) (A) (A) (A) (A) (A) (A) (A) (A) (A) (A) (A)
                 (A) (A) (A) (A) (A) (A) (A) (A) (A) (A) (A) (A)
                 (A) (A) (A) (A) (A) (A) (A) (A) (A) (A) (A) (A)
                 (A) (A) (A) (A) (A) (A) (A) (A) (A) (A) (A) (A)
                 (A) (A) (A) (A) (A) (A) (A) (A) (A) (A) (A) (A)
                 (A) (A) (A) (A) (A) (A) (A) (A) (A) (A) (A) (A)
                 (A) (A) (A) (A) (A) (A) (A) (A) (A) (A) (A) (A)
                 (A) (A) (A) (A) (A) (A) (A) (A) (A) (A) (A) (A)
                 (A) (A) (A) (A) (A) (A) (A) (A) (A) (A) (A) (A)
                 (A) (A) (A) (A) (A) (A) (A) (A) (A) (A) (A) (A)
                 (A) (A) (A) (A) (A) (A) (A) (A) (A) (A) (A) (A)
                 (A) (A) (A) (A) (A) (A) (A) (A) (A) (A) (A) (A)
                 (A) (A) (A) (A) (A) (A) (A) (A) (A) (A) (A) (A)
                 (A) (A) (A) (A) (A) (A) (A) (A) (A) (A) (A) (A)
                 (A) (A) (A) (A) (A) (A) (A) (A) (A) (A) (A) (A)
                 (A) (A) (A) (A) (A) (A) (A) (A) (A) (A) (A) (A)
                 (A) (A) (A) (A) (A) (A) (A) (A) (A) (A) (A) (A)
                 (A) (A) (A) (A) (A) (A) (A) (A) (A) (A) (A) (A)
                 (A) (A) (A) (A) (A) (A) (A) (A) (A) (A) (A) (A)
                 (A) (A) (A) (A) (A) (A) (A) (A) (A) (A) (A) (A)
                 (A) (A) (A) (A) (A) (A) (A) (A) (A) (A) (A) (A)
                 (A) (A) (A) (A) (A) (A) (A) (A) (A) (A) (A) (A)
                 (A) (A) (A) (A) (A) (A) (A) (A) (A) (A) (A) (A)
                 (A) (A) (A) (A) (A) (A) (A) (A) (A) (A) (A) (A)
                 (A) (A) (A) (A) (A) (A) (A) (A) (A) (A) (A) (A)
                 (A) (A) (A) (A) (A) (A) (A) (A) (A) (A) (A) (A)
                 (A) (A) (A) (A) (A) (A)
 The electronic state is 1-A.
 Alpha  occ. eigenvalues --  -67.08510 -67.03616 -67.03290 -67.03208 -67.02754
 Alpha  occ. eigenvalues --  -67.02350 -56.88038 -56.87740 -56.83623 -56.83481
 Alpha  occ. eigenvalues --  -56.82520 -56.81931 -19.71104 -19.70687 -19.69022
 Alpha  occ. eigenvalues --  -19.68542 -19.68467 -19.67109 -19.66745 -19.62777
 Alpha  occ. eigenvalues --  -19.62762 -19.62274 -19.59941 -19.59925 -19.58609
 Alpha  occ. eigenvalues --  -19.58342 -19.58330 -19.58155 -19.58058 -19.57914
 Alpha  occ. eigenvalues --  -19.57606 -19.57498 -19.57362 -19.57252 -19.57172
 Alpha  occ. eigenvalues --  -19.56819 -19.56736 -19.56328 -19.55760 -19.55685
 Alpha  occ. eigenvalues --  -19.55616 -19.54709  -5.62133  -5.57683  -5.57238
 Alpha  occ. eigenvalues --   -5.57201  -5.56714  -5.56312  -4.40369  -4.39741
 Alpha  occ. eigenvalues --   -4.36615  -4.36439  -4.35488  -4.34965  -3.93597
 Alpha  occ. eigenvalues --   -3.93337  -3.93274  -3.89050  -3.88963  -3.88948
 Alpha  occ. eigenvalues --   -3.88629  -3.88605  -3.88528  -3.88507  -3.88493
 Alpha  occ. eigenvalues --   -3.88398  -3.88058  -3.88041  -3.87991  -3.87665
 Alpha  occ. eigenvalues --   -3.87627  -3.87595  -2.91075  -2.90801  -2.90658
 Alpha  occ. eigenvalues --   -2.90535  -2.90314  -2.89936  -2.87298  -2.87118
 Alpha  occ. eigenvalues --   -2.87073  -2.87064  -2.86922  -2.86896  -2.86144
 Alpha  occ. eigenvalues --   -2.85985  -2.85934  -2.85604  -2.85455  -2.85422
 Alpha  occ. eigenvalues --   -1.22619  -1.22240  -1.20464  -1.20123  -1.20116
 Alpha  occ. eigenvalues --   -1.19192  -1.16843  -1.13800  -1.13634  -1.13313
 Alpha  occ. eigenvalues --   -1.11651  -1.11619  -1.08675  -1.08311  -1.07815
 Alpha  occ. eigenvalues --   -1.07324  -1.06743  -1.06515  -1.05745  -1.05594
 Alpha  occ. eigenvalues --   -1.05333  -1.04443  -1.04339  -1.04192  -1.04029
 Alpha  occ. eigenvalues --   -1.03352  -1.02552  -1.02369  -0.99512  -0.93466
 Alpha  occ. eigenvalues --   -0.70222  -0.69813  -0.68759  -0.68557  -0.68492
 Alpha  occ. eigenvalues --   -0.66891  -0.66177  -0.64885  -0.63764  -0.63064
 Alpha  occ. eigenvalues --   -0.62804  -0.62218  -0.62086  -0.61189  -0.60726
 Alpha  occ. eigenvalues --   -0.60160  -0.59100  -0.58577  -0.56391  -0.56065
 Alpha  occ. eigenvalues --   -0.55805  -0.55149  -0.54912  -0.54608  -0.53191
 Alpha  occ. eigenvalues --   -0.52878  -0.52724  -0.51684  -0.51546  -0.51473
 Alpha  occ. eigenvalues --   -0.50753  -0.50476  -0.49831  -0.49709  -0.49576
 Alpha  occ. eigenvalues --   -0.49260  -0.48985  -0.48560  -0.48505  -0.48291
 Alpha  occ. eigenvalues --   -0.47953  -0.47868  -0.46927  -0.46697  -0.46409
 Alpha  occ. eigenvalues --   -0.46024  -0.45686  -0.45251  -0.44951  -0.44418
 Alpha  occ. eigenvalues --   -0.44337  -0.43874  -0.43316  -0.43145  -0.42803
 Alpha  occ. eigenvalues --   -0.42623  -0.42430  -0.42023  -0.41397  -0.40897
 Alpha  occ. eigenvalues --   -0.40775  -0.40591  -0.40525  -0.40344  -0.40056
 Alpha  occ. eigenvalues --   -0.39907  -0.39807  -0.39613  -0.39321  -0.39113
 Alpha  occ. eigenvalues --   -0.38638  -0.38230  -0.38131  -0.37774  -0.37558
 Alpha  occ. eigenvalues --   -0.37343  -0.37099  -0.36774  -0.36380  -0.36072
 Alpha  occ. eigenvalues --   -0.35751  -0.35399  -0.35078  -0.34777  -0.34265
 Alpha  occ. eigenvalues --   -0.33544  -0.33219  -0.32625  -0.30006  -0.29091
 Alpha virt. eigenvalues --   -0.05717  -0.04269   0.00230   0.01719   0.01796
 Alpha virt. eigenvalues --    0.02674   0.03463   0.04788   0.05619   0.06017
 Alpha virt. eigenvalues --    0.06426   0.06735   0.07223   0.07290   0.07536
 Alpha virt. eigenvalues --    0.08283   0.08644   0.09299   0.09448   0.09974
 Alpha virt. eigenvalues --    0.10719   0.11066   0.11271   0.11661   0.11960
 Alpha virt. eigenvalues --    0.12175   0.13093   0.13445   0.14049   0.14417
 Alpha virt. eigenvalues --    0.14746   0.15461   0.15754   0.16089   0.16558
 Alpha virt. eigenvalues --    0.16573   0.16647   0.16986   0.17232   0.17771
 Alpha virt. eigenvalues --    0.18076   0.18667   0.18743   0.19059   0.19340
 Alpha virt. eigenvalues --    0.19721   0.20189   0.20460   0.20681   0.20862
 Alpha virt. eigenvalues --    0.21299   0.21705   0.21850   0.22056   0.22225
 Alpha virt. eigenvalues --    0.22367   0.22814   0.22908   0.23281   0.23781
 Alpha virt. eigenvalues --    0.24220   0.24363   0.24519   0.24761   0.25317
 Alpha virt. eigenvalues --    0.25378   0.25822   0.25904   0.26188   0.26931
 Alpha virt. eigenvalues --    0.27659   0.28217   0.28447   0.29136   0.29458
 Alpha virt. eigenvalues --    0.29774   0.29930   0.30282   0.30916   0.31266
 Alpha virt. eigenvalues --    0.31924   0.31996   0.32374   0.32641   0.32993
 Alpha virt. eigenvalues --    0.33253   0.33688   0.34094   0.34718   0.35006
 Alpha virt. eigenvalues --    0.35456   0.35643   0.35762   0.36436   0.36909
 Alpha virt. eigenvalues --    0.37054   0.37473   0.37995   0.38041   0.38332
 Alpha virt. eigenvalues --    0.39215   0.39278   0.40013   0.40406   0.40462
 Alpha virt. eigenvalues --    0.40858   0.41425   0.41797   0.42294   0.43004
 Alpha virt. eigenvalues --    0.43449   0.44115   0.44858   0.45357   0.45855
 Alpha virt. eigenvalues --    0.46049   0.46417   0.46879   0.47496   0.47639
 Alpha virt. eigenvalues --    0.48110   0.48155   0.48690   0.49288   0.49586
 Alpha virt. eigenvalues --    0.50084   0.51137   0.51994   0.52561   0.53449
 Alpha virt. eigenvalues --    0.55687   0.56491   0.58338   0.59150   0.59257
 Alpha virt. eigenvalues --    0.59990   0.60022   0.61392   0.61590   0.62045
 Alpha virt. eigenvalues --    0.62956   0.63312   0.63573   0.63925   0.64524
 Alpha virt. eigenvalues --    0.64715   0.65301   0.65982   0.66557   0.66785
 Alpha virt. eigenvalues --    0.67158   0.68234   0.68596   0.69090   0.69425
 Alpha virt. eigenvalues --    0.69665   0.70535   0.72174   0.72997   0.73454
 Alpha virt. eigenvalues --    0.73812   0.74766   0.75020   0.75789   0.76290
 Alpha virt. eigenvalues --    0.76795   0.77102   0.77662   0.78388   0.78698
 Alpha virt. eigenvalues --    0.79078   0.79943   0.80765   0.81521   0.81988
 Alpha virt. eigenvalues --    0.82671   0.83384   0.83741   0.84324   0.84815
 Alpha virt. eigenvalues --    0.85004   0.85354   0.85584   0.86323   0.87153
 Alpha virt. eigenvalues --    0.87333   0.87873   0.87967   0.88715   0.89005
 Alpha virt. eigenvalues --    0.89190   0.89600   0.90083   0.90862   0.91296
 Alpha virt. eigenvalues --    0.91469   0.92205   0.92453   0.92612   0.92778
 Alpha virt. eigenvalues --    0.92986   0.93719   0.94065   0.94492   0.94694
 Alpha virt. eigenvalues --    0.95098   0.95287   0.95595   0.95898   0.96307
 Alpha virt. eigenvalues --    0.96802   0.97094   0.97906   0.98284   0.98661
 Alpha virt. eigenvalues --    0.98787   0.99257   0.99955   1.00209   1.00795
 Alpha virt. eigenvalues --    1.00921   1.01236   1.01685   1.01920   1.02581
 Alpha virt. eigenvalues --    1.02829   1.03339   1.03535   1.03925   1.04608
 Alpha virt. eigenvalues --    1.04814   1.05130   1.05428   1.05779   1.06255
 Alpha virt. eigenvalues --    1.06365   1.06761   1.07519   1.07886   1.08066
 Alpha virt. eigenvalues --    1.08308   1.08673   1.09058   1.09418   1.09731
 Alpha virt. eigenvalues --    1.09773   1.10261   1.10471   1.10953   1.11039
 Alpha virt. eigenvalues --    1.11389   1.12025   1.12227   1.12531   1.12677
 Alpha virt. eigenvalues --    1.13039   1.13096   1.13558   1.13754   1.14377
 Alpha virt. eigenvalues --    1.14724   1.15074   1.15459   1.16276   1.16429
 Alpha virt. eigenvalues --    1.16657   1.17445   1.17863   1.18120   1.18494
 Alpha virt. eigenvalues --    1.19039   1.19424   1.20145   1.20277   1.20711
 Alpha virt. eigenvalues --    1.20860   1.21216   1.21956   1.22132   1.22405
 Alpha virt. eigenvalues --    1.22973   1.23647   1.24372   1.24873   1.25030
 Alpha virt. eigenvalues --    1.25298   1.25762   1.26742   1.27138   1.27805
 Alpha virt. eigenvalues --    1.27947   1.28548   1.29135   1.29631   1.29802
 Alpha virt. eigenvalues --    1.30577   1.30990   1.31165   1.31495   1.32368
 Alpha virt. eigenvalues --    1.32713   1.33898   1.34284   1.34758   1.35101
 Alpha virt. eigenvalues --    1.35529   1.36153   1.36266   1.36441   1.37342
 Alpha virt. eigenvalues --    1.37612   1.38328   1.39291   1.39936   1.40067
 Alpha virt. eigenvalues --    1.40535   1.41401   1.41611   1.42380   1.42561
 Alpha virt. eigenvalues --    1.43638   1.43852   1.44257   1.44971   1.45629
 Alpha virt. eigenvalues --    1.46115   1.47403   1.47860   1.48486   1.48834
 Alpha virt. eigenvalues --    1.49267   1.50263   1.51323   1.51625   1.52699
 Alpha virt. eigenvalues --    1.53150   1.54049   1.54763   1.55769   1.56820
 Alpha virt. eigenvalues --    1.57173   1.57844   1.58211   1.58585   1.59884
 Alpha virt. eigenvalues --    1.60518   1.60653   1.62409   1.63431   1.65045
 Alpha virt. eigenvalues --    1.65494   1.66799   1.67916   1.68463   1.69056
 Alpha virt. eigenvalues --    1.69312   1.69790   1.70908   1.71335   1.71911
 Alpha virt. eigenvalues --    1.71981   1.73275   1.73832   1.74934   1.75147
 Alpha virt. eigenvalues --    1.75651   1.76442   1.76982   1.77910   1.79021
 Alpha virt. eigenvalues --    1.80030   1.81795   1.82580   1.83944   1.84627
 Alpha virt. eigenvalues --    1.86605   1.87250   1.87525   1.88068   1.89808
 Alpha virt. eigenvalues --    1.90882   1.93462   1.93689   1.97770   1.99864
 Alpha virt. eigenvalues --    2.00519   2.02584   2.04348   2.05047   2.05587
 Alpha virt. eigenvalues --    2.05904   2.06200   2.06528   2.07275   2.07721
 Alpha virt. eigenvalues --    2.12452   2.12975   2.15061   2.23495   2.24798
 Alpha virt. eigenvalues --    2.28079   2.28776   2.37746   2.39152   2.42532
 Alpha virt. eigenvalues --    2.44596   2.45587   2.49583   2.50431   2.50558
 Alpha virt. eigenvalues --    2.51438   2.52388   2.53754   2.54304   2.56610
 Alpha virt. eigenvalues --    2.56864   2.57355   2.57823   2.58040   2.59066
 Alpha virt. eigenvalues --    2.88020   2.89351   2.89695   2.89815   2.90085
 Alpha virt. eigenvalues --    2.90623   2.90810   2.91243   2.91584   2.91926
 Alpha virt. eigenvalues --    2.92240   2.92741   2.92782   2.92981   2.93729
 Alpha virt. eigenvalues --    2.93835   2.94031   2.94240   2.94717   2.94924
 Alpha virt. eigenvalues --    2.95302   2.95617   2.96230   2.97040   2.97255
 Alpha virt. eigenvalues --    2.97994   2.98071   2.98348   2.99094   2.99654
 Alpha virt. eigenvalues --    2.99920   3.00238   3.00448   3.00748   3.01255
 Alpha virt. eigenvalues --    3.01424   3.01903   3.02282   3.02577   3.02897
 Alpha virt. eigenvalues --    3.02959   3.03351   3.04078   3.04318   3.04579
 Alpha virt. eigenvalues --    3.05063   3.05828   3.06314   3.06573   3.06748
 Alpha virt. eigenvalues --    3.06899   3.07208   3.07817   3.08193   3.08485
 Alpha virt. eigenvalues --    3.08775   3.08943   3.09239   3.09642   3.10237
 Alpha virt. eigenvalues --    3.10316   3.10873   3.10970   3.11256   3.11590
 Alpha virt. eigenvalues --    3.12354   3.12771   3.13160   3.13385   3.13532
 Alpha virt. eigenvalues --    3.13621   3.13764   3.14302   3.14633   3.15016
 Alpha virt. eigenvalues --    3.15056   3.15659   3.16101   3.16393   3.16635
 Alpha virt. eigenvalues --    3.18306   3.19446   3.19618   3.19959   3.20069
 Alpha virt. eigenvalues --    3.20305   3.20493   3.20942   3.21497   3.21898
 Alpha virt. eigenvalues --    3.23400   3.23545   3.24001   3.24476   3.25200
 Alpha virt. eigenvalues --    3.25640   3.26331   3.26738   3.29284   3.29558
 Alpha virt. eigenvalues --    3.30445   3.30650   3.31104   3.31232   3.31404
 Alpha virt. eigenvalues --    3.31954   3.32711   3.35332   3.36474   3.37505
 Alpha virt. eigenvalues --    3.37761   3.38204   3.38687   3.39699   3.40879
 Alpha virt. eigenvalues --    3.42881   3.43841   3.44694   3.45202   3.47109
 Alpha virt. eigenvalues --    3.47839   3.48277   3.50979   3.51212   3.51707
 Alpha virt. eigenvalues --    3.52032   3.52692   3.53536   3.53745   3.54270
 Alpha virt. eigenvalues --    3.55091   3.55695   3.61497   3.62251   3.63299
 Alpha virt. eigenvalues --    3.65025   3.67180   3.67551   3.78668   3.79289
 Alpha virt. eigenvalues --    3.80381   3.81482   3.81866   3.82540   3.83061
 Alpha virt. eigenvalues --    3.83379   3.84570   3.84826   3.86976   3.87176
 Alpha virt. eigenvalues --    4.66166   4.70573   4.71587   4.73653   4.74391
 Alpha virt. eigenvalues --    4.76998   4.87424   4.88179   4.89578   4.90921
 Alpha virt. eigenvalues --    4.91533   4.92590   4.94363   4.96016   4.96959
 Alpha virt. eigenvalues --    4.97895   4.98944   4.99435   5.00120   5.00641
 Alpha virt. eigenvalues --    5.01202   5.01691   5.02570   5.03556   5.03922
 Alpha virt. eigenvalues --    5.04041   5.04469   5.05473   5.05887   5.06772
 Alpha virt. eigenvalues --    5.07522   5.07772   5.08595   5.08721   5.08859
 Alpha virt. eigenvalues --    5.09557   5.10619   5.11001   5.11717   5.12082
 Alpha virt. eigenvalues --    5.13972   5.14105   5.14696   5.15078   5.16068
 Alpha virt. eigenvalues --    5.16643   5.16781   5.16898   5.17993   5.19371
 Alpha virt. eigenvalues --    5.19756   5.20595   5.21237   5.22640   5.23225
 Alpha virt. eigenvalues --    5.23412   5.25266   5.27057   5.27385   5.27774
 Alpha virt. eigenvalues --    5.29056   5.29415   5.29982   5.30134   5.30968
 Alpha virt. eigenvalues --    5.31749   5.33206   5.33417   5.34310   5.34912
 Alpha virt. eigenvalues --    5.35090   5.35525   5.36365   5.36623   5.37523
 Alpha virt. eigenvalues --    5.38152   5.38407   5.39381   5.39509   5.40933
 Alpha virt. eigenvalues --    5.41838   5.42995   5.44232   5.46071   5.54797
 Alpha virt. eigenvalues --    5.57084   5.58524   5.58987   5.59143   5.59515
 Alpha virt. eigenvalues --    5.65323   5.65740   5.68620   5.68910   5.69463
 Alpha virt. eigenvalues --    5.69978   5.86252   5.94921   5.96830   5.98094
 Alpha virt. eigenvalues --    6.00913   6.03698   8.22428   8.23690   8.29016
 Alpha virt. eigenvalues --    8.31553   8.33482   8.34866   8.36961   8.37305
 Alpha virt. eigenvalues --    8.40992   8.43418   8.43760   8.47848   8.48668
 Alpha virt. eigenvalues --    8.50957   8.51130   8.52539   8.53577   8.55260
 Alpha virt. eigenvalues --   11.48321  11.59794  11.63188  11.64130  11.64573
 Alpha virt. eigenvalues --   11.65243  11.66700  11.67134  11.67779  11.67890
 Alpha virt. eigenvalues --   11.69075  11.69596  11.71145  11.71819  11.73214
 Alpha virt. eigenvalues --   11.74265  11.75722  11.79142  49.91695  49.92347
 Alpha virt. eigenvalues --   49.92887  49.93734  49.94396  49.94919  49.95393
 Alpha virt. eigenvalues --   49.96916  49.97920  49.98200  49.98353  49.98448
 Alpha virt. eigenvalues --   49.98768  49.99010  49.99562  50.00235  50.00430
 Alpha virt. eigenvalues --   50.00857  50.01710  50.02164  50.02275  50.03113
 Alpha virt. eigenvalues --   50.03941  50.04938  50.06572  50.08045  50.08133
 Alpha virt. eigenvalues --   50.08606  50.09163  50.11842 120.74008 120.79403
 Alpha virt. eigenvalues --  120.83486 120.86133 120.88722 120.92093 141.35684
 Alpha virt. eigenvalues --  141.46378 141.47622 141.49104 141.52561 141.55454
          Condensed to atoms (all electrons):
 Mulliken charges:
               1
     1  O   -0.833749
     2  Si   1.451762
     3  O   -0.837756
     4  O   -0.844115
     5  Si   1.441032
     6  O   -0.850662
     7  O   -0.743083
     8  H    0.342723
     9  O   -0.598888
    10  H    0.404494
    11  O   -0.745497
    12  H    0.349293
    13  O   -0.827095
    14  O   -0.856245
    15  O   -0.556764
    16  H    0.394497
    17  O   -0.864999
    18  Si   1.438178
    19  O   -0.672689
    20  H    0.314227
    21  O   -0.555123
    22  H    0.397270
    23  O   -0.805305
    24  O   -0.859837
    25  Si   1.443853
    26  O   -0.833780
    27  O   -0.672359
    28  H    0.316120
    29  O   -0.592259
    30  H    0.405378
    31  Si   1.396837
    32  O   -0.816749
    33  O   -0.814745
    34  O   -0.868476
    35  O   -0.576538
    36  H    0.376307
    37  O   -0.691718
    38  H    0.369627
    39  Si   1.434261
    40  O   -0.862049
    41  O   -0.851333
    42  O   -0.723885
    43  H    0.318582
    44  O   -0.842560
    45  O   -0.564169
    46  H    0.386432
    47  O   -0.877259
    48  O   -0.838296
    49  Al   1.350057
    50  Al   1.220829
    51  Al   1.185912
    52  Al   1.266009
    53  Al   1.294175
    54  Al   1.315823
    55  H    0.383620
    56  H    0.380687
    57  H    0.388669
    58  H    0.393010
    59  H    0.396493
    60  H    0.321828
 Sum of Mulliken charges =   0.00000
 Mulliken charges with hydrogens summed into heavy atoms:
               1
     1  O   -0.833749
     2  Si   1.451762
     3  O   -0.837756
     4  O   -0.844115
     5  Si   1.441032
     6  O   -0.850662
     7  O   -0.400360
     9  O    0.194275
    11  O   -0.396204
    13  O   -0.827095
    14  O   -0.856245
    15  O    0.230742
    17  O   -0.864999
    18  Si   1.438178
    19  O   -0.358461
    21  O    0.238640
    23  O   -0.805305
    24  O   -0.859837
    25  Si   1.443853
    26  O   -0.833780
    27  O   -0.356240
    29  O    0.193806
    31  Si   1.396837
    32  O   -0.816749
    33  O   -0.814745
    34  O   -0.868476
    35  O    0.183388
    37  O   -0.322092
    39  Si   1.434261
    40  O   -0.862049
    41  O   -0.851333
    42  O   -0.405303
    44  O   -0.842560
    45  O    0.144091
    47  O   -0.877259
    48  O   -0.838296
    49  Al   1.350057
    50  Al   1.220829
    51  Al   1.185912
    52  Al   1.266009
    53  Al   1.294175
    54  Al   1.315823
 Electronic spatial extent (au):  <R**2>=          24078.3526
 Charge=              0.0000 electrons
 Dipole moment (field-independent basis, Debye):
    X=             -3.3383    Y=              3.6852    Z=              1.4587  Tot=              5.1820
 Quadrupole moment (field-independent basis, Debye-Ang):
   XX=           -208.3528   YY=           -215.9820   ZZ=           -263.5286
   XY=             43.5276   XZ=            -21.6471   YZ=             44.3637
 Traceless Quadrupole moment (field-independent basis, Debye-Ang):
   XX=             20.9350   YY=             13.3058   ZZ=            -34.2408
   XY=             43.5276   XZ=            -21.6471   YZ=             44.3637
 Octapole moment (field-independent basis, Debye-Ang**2):
  XXX=           -127.1461  YYY=            206.4255  ZZZ=             20.7032  XYY=           -112.7327
  XXY=            -64.0594  XXZ=             81.5197  XZZ=            229.0247  YZZ=             68.1942
  YYZ=            -52.6545  XYZ=             95.7889
 Hexadecapole moment (field-independent basis, Debye-Ang**3):
 XXXX=         -11521.3579 YYYY=          -6862.5673 ZZZZ=          -5572.0778 XXXY=            841.4459
 XXXZ=           -720.3228 YYYX=            282.6097 YYYZ=            165.7839 ZZZX=            -71.7831
 ZZZY=            573.6679 XXYY=          -2520.2149 XXZZ=          -2226.3546 YYZZ=          -1388.0408
 XXYZ=            910.9835 YYXZ=           -436.9486 ZZXY=             66.8463
 N-N= 1.028604914270D+04 E-N=-3.358454566707D+04  KE= 5.448850377671D+03
 D1PCM: C-PCM CHGder 1st derivatives, ID1Alg=3 FixD1E=F DoIter=F DoCFld=F I1PDM=0.
 Calling FoFJK, ICntrl=      2127 FMM=T ISym2X=0 I1Cent= 0 IOpClX= 0 NMat=1 NMatS=1 NMatT=0.
 ***** Axes restored to original set *****
 -------------------------------------------------------------------
 Center     Atomic                   Forces (Hartrees/Bohr)
 Number     Number              X              Y              Z
 -------------------------------------------------------------------
      1        8           0.012634098    0.003535468    0.000340090
      2       14          -0.010075977   -0.001604310    0.001756774
      3        8           0.003060301    0.001115097    0.000968387
      4        8           0.003689601    0.005854022    0.000832096
      5       14          -0.014751739   -0.014639157   -0.003895838
      6        8           0.005705302    0.000744052    0.002045886
      7        8           0.000773156    0.004878546    0.003138357
      8        1          -0.000175573   -0.000258029    0.000149568
      9        8           0.001843251    0.002767372   -0.001526034
     10        1          -0.000899254   -0.000222518    0.000262762
     11        8           0.002132768    0.001887340   -0.001293577
     12        1           0.000082253   -0.000164149   -0.000059480
     13        8           0.002826975   -0.000390223   -0.001140657
     14        8           0.002823556    0.002704073    0.001167133
     15        8           0.000997386    0.000499843    0.000550876
     16        1          -0.000235869   -0.000037347   -0.000024527
     17        8           0.002993769   -0.000819686   -0.001316301
     18       14          -0.014038564    0.002489714   -0.000962790
     19        8           0.001971420   -0.001048448    0.000341292
     20        1          -0.000360786    0.000150189   -0.000286417
     21        8           0.000805653   -0.000370730   -0.000710421
     22        1          -0.000179687    0.000074066   -0.000016047
     23        8           0.004986802    0.019997771   -0.003262993
     24        8          -0.006322915    0.001188393    0.001559564
     25       14           0.029748213   -0.006383552   -0.002073774
     26        8          -0.011684972    0.021446990    0.003168890
     27        8          -0.004814845    0.002215035   -0.001783278
     28        1           0.000452966   -0.000578149    0.000164785
     29        8          -0.002393552    0.002026600    0.001943368
     30        1           0.000626441   -0.000989751   -0.000845394
     31       14           0.090329633    0.062982754    0.008959495
     32        8          -0.037216451   -0.005047189   -0.000533616
     33        8          -0.022974009   -0.024670861   -0.022557712
     34        8          -0.021417828   -0.009574823   -0.003610848
     35        8           0.014797108   -0.007762563   -0.008452766
     36        1           0.001531566    0.002663713   -0.003247501
     37        8           0.016551387   -0.008010587    0.014759905
     38        1          -0.003806097   -0.000615682    0.001713045
     39       14          -0.059152669    0.055246347   -0.016536953
     40        8           0.004194654   -0.012015262    0.023637847
     41        8           0.007299439   -0.058853375    0.000242118
     42        8          -0.022500614   -0.032344037   -0.008868655
     43        1           0.030861780   -0.002559524    0.015164940
     44        8           0.010740443   -0.054309078   -0.007127990
     45        8          -0.013086306   -0.021703557    0.000093867
     46        1           0.001261714   -0.000200206   -0.000162703
     47        8          -0.051994916    0.017587398    0.008600576
     48        8           0.004932350   -0.004295073   -0.001929765
     49       13           0.036704040    0.068939124    0.029691592
     50       13           0.017864177   -0.010321598    0.001460149
     51       13          -0.012348061   -0.016738572   -0.003984183
     52       13          -0.003001055   -0.001142555   -0.001654086
     53       13          -0.004337238    0.001092035    0.002377499
     54       13          -0.014115001    0.017273299   -0.021162321
     55        1           0.002017949   -0.002452614   -0.001070170
     56        1           0.000312859   -0.000129728    0.000039995
     57        1           0.000227738   -0.000660259    0.000451602
     58        1          -0.000077752   -0.000181285   -0.000115928
     59        1          -0.000002280    0.000058290    0.000295717
     60        1           0.014183261    0.001676944   -0.005665448
 -------------------------------------------------------------------
 Cartesian Forces:  Max     0.090329633 RMS     0.016638593

 GradGradGradGradGradGradGradGradGradGradGradGradGradGradGradGradGradGrad
 Berny optimization.
 FormGI is forming the generalized inverse of G from B-inverse, IUseBI=4.
 Internal  Forces:  Max     0.065598752 RMS     0.010157135
 Search for a local minimum.
 Step number   1 out of a maximum of  350
 All quantities printed in internal units (Hartrees-Bohrs-Radians)
 Mixed Optimization -- RFO/linear search
 Second derivative matrix not updated -- first step.
 ITU=  0
     Eigenvalues ---    0.00544   0.01360   0.02181   0.02317   0.02341
     Eigenvalues ---    0.02366   0.02622   0.02748   0.02849   0.02866
     Eigenvalues ---    0.03221   0.03269   0.03294   0.03432   0.03436
     Eigenvalues ---    0.03471   0.03503   0.03615   0.03675   0.03843
     Eigenvalues ---    0.04078   0.04241   0.04347   0.04479   0.04524
     Eigenvalues ---    0.04620   0.04820   0.04957   0.05001   0.05109
     Eigenvalues ---    0.05151   0.05308   0.05412   0.05596   0.05953
     Eigenvalues ---    0.06205   0.06362   0.06663   0.07207   0.07971
     Eigenvalues ---    0.09323   0.09457   0.09526   0.09914   0.10350
     Eigenvalues ---    0.10597   0.10828   0.11075   0.11188   0.11364
     Eigenvalues ---    0.11555   0.11707   0.12226   0.12426   0.12700
     Eigenvalues ---    0.12967   0.13008   0.13234   0.13366   0.13453
     Eigenvalues ---    0.13500   0.13634   0.13779   0.13857   0.14233
     Eigenvalues ---    0.14435   0.14450   0.14586   0.14654   0.14880
     Eigenvalues ---    0.15008   0.15228   0.15361   0.15620   0.15823
     Eigenvalues ---    0.16000   0.16000   0.16000   0.16000   0.16000
     Eigenvalues ---    0.16000   0.16000   0.16000   0.16000   0.16000
     Eigenvalues ---    0.16000   0.16000   0.16000   0.16000   0.16000
     Eigenvalues ---    0.16000   0.16000   0.16000   0.16232   0.16575
     Eigenvalues ---    0.16915   0.17318   0.17836   0.18416   0.18801
     Eigenvalues ---    0.18849   0.19529   0.19718   0.19793   0.19961
     Eigenvalues ---    0.20090   0.20111   0.20541   0.20646   0.20668
     Eigenvalues ---    0.20752   0.20846   0.21123   0.21491   0.21554
     Eigenvalues ---    0.22074   0.22642   0.23107   0.24856   0.27392
     Eigenvalues ---    0.27969   0.28637   0.28886   0.29919   0.30399
     Eigenvalues ---    0.30731   0.30835   0.31352   0.31498   0.31769
     Eigenvalues ---    0.32240   0.32365   0.32473   0.33573   0.38292
     Eigenvalues ---    0.38539   0.40368   0.40590   0.40705   0.41938
     Eigenvalues ---    0.42467   0.42619   0.42898   0.43292   0.43992
     Eigenvalues ---    0.44166   0.44478   0.45036   0.45641   0.46091
     Eigenvalues ---    0.46484   0.46522   0.47392   0.47425   0.47650
     Eigenvalues ---    0.47713   0.48081   0.48461   0.48475   0.49525
     Eigenvalues ---    0.50505   0.51025   0.54215   0.54235   0.54355
     Eigenvalues ---    0.54372   0.54398   0.54633   0.54668   0.55298
     Eigenvalues ---    0.55333   0.55361   0.55512   0.55548
 RFO step:  Lambda=-1.24592165D-01 EMin= 5.44478447D-03
 Linear search not attempted -- first point.
 Maximum step size (   0.300) exceeded in Quadratic search.
    -- Step size scaled by   0.509
 Iteration  1 RMS(Cart)=  0.05289216 RMS(Int)=  0.00068664
 Iteration  2 RMS(Cart)=  0.00121101 RMS(Int)=  0.00016711
 Iteration  3 RMS(Cart)=  0.00000072 RMS(Int)=  0.00016711
 Variable       Old X    -DE/DX   Delta X   Delta X   Delta X     New X
                                 (Linear)    (Quad)   (Total)
    R1        3.07727  -0.00508   0.00000  -0.00401  -0.00418   3.07309
    R2        3.28433   0.00704   0.00000   0.00889   0.00873   3.29307
    R3        3.06466   0.00184   0.00000   0.00120   0.00121   3.06587
    R4        3.17288   0.00244   0.00000   0.00244   0.00244   3.17532
    R5        3.05923   0.00488   0.00000   0.00465   0.00458   3.06381
    R6        3.27269   0.00162   0.00000   0.00099   0.00100   3.27369
    R7        3.06766   0.00059   0.00000   0.00092   0.00095   3.06860
    R8        3.26788   0.00269   0.00000   0.00353   0.00353   3.27141
    R9        3.04612   0.00312   0.00000   0.00178   0.00178   3.04790
   R10        3.17643   0.00492   0.00000   0.00493   0.00493   3.18136
   R11        3.08022  -0.01588   0.00000  -0.01422  -0.01412   3.06610
   R12        3.27459  -0.00189   0.00000  -0.00338  -0.00335   3.27124
   R13        1.81568  -0.00028   0.00000  -0.00021  -0.00021   1.81547
   R14        1.88151  -0.00088   0.00000  -0.00074  -0.00074   1.88077
   R15        3.55123   0.00228   0.00000   0.00349   0.00349   3.55472
   R16        1.82128  -0.00074   0.00000  -0.00056  -0.00056   1.82072
   R17        1.81538  -0.00001   0.00000  -0.00001  -0.00001   1.81537
   R18        3.27772   0.00430   0.00000   0.00565   0.00565   3.28337
   R19        3.07817   0.00658   0.00000   0.00524   0.00518   3.08335
   R20        3.23660   0.00379   0.00000   0.00313   0.00306   3.23966
   R21        1.82371  -0.00022   0.00000  -0.00017  -0.00017   1.82354
   R22        3.57767   0.00081   0.00000   0.00128   0.00128   3.57895
   R23        1.82518  -0.00015   0.00000  -0.00011  -0.00011   1.82507
   R24        3.07578   0.00079   0.00000   0.00022   0.00018   3.07596
   R25        3.25472  -0.00069   0.00000  -0.00121  -0.00129   3.25343
   R26        3.12702   0.00173   0.00000   0.00162   0.00162   3.12864
   R27        3.09014   0.00268   0.00000   0.00224   0.00210   3.09224
   R28        1.81380  -0.00029   0.00000  -0.00022  -0.00022   1.81358
   R29        1.82536  -0.00014   0.00000  -0.00011  -0.00011   1.82526
   R30        3.55814   0.00075   0.00000   0.00116   0.00116   3.55930
   R31        1.82410  -0.00031   0.00000  -0.00024  -0.00024   1.82386
[...]
 -0.00001876,-0.00001818,0.00000640,-0.00000321,-0.00000508,-0.00000715
 ,-0.00000339,0.00000078,0.00000127,0.00000075,-0.00004345,0.00002356,0
 .00000005,-0.00001241,-0.00001708,-0.00000846,-0.00000207,0.00000111,0
 .00000454,-0.00025071,-0.00023008,0.00002483,-0.00003261,-0.00001535,-
 0.00002156,0.00000752,-0.00002410,-0.00001467,-0.00028758,-0.00005896,
 -0.00000533,0.00004681,-0.00011681,-0.00035269,0.00716463,-0.00620943,
 -0.00588452,0.00002651,0.00004500,0.00011122,0.00012532,0.00001831,0.0
 0003628,-0.00000079,-0.00000060,-0.00000032,-0.00001314,0.00000602,-0.
 00000153,-0.00000491,0.00000494,0.00000053,0.07296005,0.00027281,0.000
 00907,0.00021596,-0.00028653,-0.00018968,-0.00092443,0.00078380,0.0001
 9660,0.00221440,0.00028081,-0.00028069,0.00034989,-0.00145490,0.000542
 00,-0.00013966,0.00305501,-0.00116353,0.00070652,0.00029987,-0.0001862
 9,-0.00017887,0.00000248,0.00004656,0.00002454,0.00002109,-0.00006005,
 0.00004180,-0.00003465,0.00004460,-0.00000170,0.00001851,-0.00013004,0
 .00026408,0.00002649,0.00002372,-0.00002898,-0.00000216,0.00024212,0.0
 0023654,-0.00013328,0.00112961,0.00019531,0.09617960,-0.22495346,-0.22
 554801,0.00250938,-0.01100372,-0.01398506,0.00002725,0.00017723,0.0001
 6229,-0.00022027,-0.00080913,-0.00008991,-0.00006905,0.00018414,-0.000
 03882,0.00001960,-0.00001857,0.00001941,-0.00001605,0.00002517,0.00002
 807,0.00000870,0.00000084,-0.00000226,0.00051017,0.00017149,0.00004660
 ,0.00006420,-0.00000904,0.00003644,-0.00007425,-0.00002828,-0.00004701
 ,0.00009322,0.00000382,0.00005443,0.00002339,-0.00000629,0.00001405,-0
 .00000279,0.00000378,-0.00000115,0.00008194,0.00000445,-0.00002135,-0.
 00009105,-0.00002539,0.00001554,-0.00002084,-0.00004317,-0.00000841,0.
 00004249,0.00004703,-0.00000848,0.00000986,0.00000907,0.00000892,0.000
 01120,0.00002201,0.00001549,0.00000554,0.00000292,0.00000300,-0.000000
 80,0.00000024,-0.00000090,0.00001119,0.00001117,-0.00000382,-0.0000018
 1,-0.00000116,0.00000124,-0.00004697,-0.00001949,-0.00001594,0.0000316
 5,0.00000920,0.00002134,0.00001497,0.00000012,0.00001068,0.00000574,0.
 00001713,0.00000272,-0.00000020,-0.00000192,-0.00000129,0.00002253,0.0
 0001254,-0.00000528,0.00000897,0.00001678,0.00000592,-0.00000126,-0.00
 000137,-0.00000335,0.00015193,0.00012340,-0.00003176,0.00004976,0.0000
 3372,0.00002993,-0.00001573,-0.00001223,-0.00001341,-0.00020398,-0.000
 03486,0.00001206,-0.00014780,0.00008397,-0.00022082,-0.00458820,-0.004
 81621,-0.00754491,-0.00003092,-0.00014965,-0.00011269,-0.00008676,-0.0
 0003384,-0.00001113,-0.00000118,-0.00000067,-0.00000019,-0.00000795,0.
 00000548,0.00000025,-0.00000864,0.00000665,-0.00000655,-0.09709307,0.2
 4076881,-0.00000066,0.00002931,0.00009440,-0.00012148,0.00001427,-0.00
 032387,-0.00045569,0.00005216,0.00012648,0.00024961,-0.00022157,0.0003
 4799,-0.00159605,0.00065006,-0.00033678,0.00317318,0.00007935,0.000248
 10,0.00030472,-0.00018786,-0.00016210,-0.00000299,0.00004551,0.0000299
 3,-0.00000453,-0.00002446,0.00003425,-0.00000129,0.00000865,-0.0000192
 4,-0.00000385,-0.00003958,0.00005037,0.00000905,0.00001193,-0.00001437
 ,0.00000785,0.00006445,0.00009160,0.00059298,0.00164821,0.00049954,0.0
 7577176,-0.25238683,-0.28171134,-0.00404593,0.01114333,0.01011492,-0.0
 0000355,0.00014125,0.00018130,-0.00005607,-0.00064534,-0.00007187,-0.0
 0006521,0.00014966,-0.00003869,0.00000670,-0.00001889,0.00002147,-0.00
 000998,0.00001447,0.00001924,0.00000509,-0.00000243,-0.00000095,0.0005
 8355,0.00018427,0.00008217,0.00006509,-0.00000999,0.00004241,-0.000056
 44,-0.00002234,-0.00005033,0.00005979,0.00001343,0.00005183,0.00001919
 ,-0.00000558,0.00001349,-0.00000281,0.00000299,-0.00000106,0.00008576,
 0.00000568,-0.00002110,-0.00009448,-0.00003071,0.00002064,-0.00002099,
 -0.00004417,-0.00000387,0.00004452,0.00005138,-0.00001033,0.00000833,0
 .00001001,0.00000833,0.00000801,0.00002046,0.00001374,0.00000398,0.000
 00258,0.00000220,-0.00000039,-0.00000041,-0.00000125,0.00001039,0.0000
 1244,-0.00000353,-0.00000105,-0.00000128,0.00000210,-0.00003060,-0.000
 02183,-0.00002283,0.00002647,0.00000581,0.00002148,0.00001023,0.000002
 80,0.00000925,0.00000458,0.00001231,0.00000363,-0.00000050,-0.00000222
 ,-0.00000035,0.00001936,0.00001093,-0.00000491,0.00000628,0.00001868,0
 .00000603,0.00000132,-0.00000255,-0.00000363,0.00016940,0.00016171,-0.
 00002826,0.00002403,0.00001410,0.00002327,-0.00000891,-0.00001165,-0.0
 0001130,-0.00021540,-0.00003939,0.00001323,-0.00006174,-0.00001062,-0.
 00023960,-0.00065434,-0.00504953,-0.00575730,-0.00000774,-0.00003964,-
 0.00009781,-0.00007634,-0.00003704,-0.00003125,-0.00000116,-0.00000071
 ,0.00000034,-0.00000953,0.00000436,-0.00000002,-0.00000541,0.00000785,
 -0.00000322,-0.07365354,0.24427141,0.27679234,-0.00025699,0.00013163,0
 .00005187,0.00017292,-0.00065410,-0.00028582,0.00003451,0.00015158,0.0
 0016998,-0.00001953,0.00001989,0.00001947,0.00004299,-0.00000411,-0.00
 002553,-0.00003829,0.00002633,0.00002874,-0.00001058,0.00000225,0.0000
 0709,0.00000010,-0.00000112,-0.00000085,-0.00003069,0.00002960,-0.0000
 0398,0.00004289,-0.00003015,0.00000234,-0.00000822,0.00022274,-0.00005
 389,-0.00001694,-0.00000458,0.00000772,-0.00093163,0.00205947,0.000240
 01,0.00002758,0.00014887,0.00017025,0.00001413,0.00001912,0.00002109,-
 0.00000589,-0.00000027,-0.00000088,-0.00113780,0.00003670,0.00232251,-
 0.00008417,-0.00010193,-0.00076033,0.00006896,-0.00004485,0.00014895,0
 .00000723,0.00000391,-0.00000095,-0.10530752,-0.07786424,-0.10718926,-
 0.00987862,-0.02813577,-0.02462921,-0.00002284,-0.00001847,0.00000289,
 -0.00000340,-0.00001435,-0.00000778,0.00001699,0.00006707,0.00001003,-
 0.00004191,-0.00000928,-0.00000327,0.00000189,-0.00001247,0.00000025,0
 .00000098,-0.00000002,0.00000049,-0.00000385,-0.00000349,-0.00000231,0
 .00000513,0.00000210,0.00000022,-0.00005765,0.00001625,0.00007600,0.00
 000604,-0.00002690,-0.00001731,0.00006956,-0.00000613,-0.00007135,0.00
 002823,-0.00009039,-0.00001008,0.00005178,0.00000631,0.00000270,-0.000
 00340,0.00000242,-0.00000634,0.00001643,0.00000715,-0.00001541,-0.0000
 0156,0.00000031,0.00000158,-0.00199839,-0.00064951,0.00098040,0.000233
 00,-0.00000932,-0.00081791,0.00064572,-0.00006763,-0.00001998,0.000292
 97,0.00038203,-0.00019862,-0.00004578,-0.00008891,-0.00003292,0.000029
 93,0.00000302,-0.00008260,-0.00000848,0.00003286,-0.00012218,-0.000004
 71,-0.00005027,0.00016424,-0.00028530,-0.00004921,0.00018333,0.0031216
 2,-0.00196455,-0.00201106,-0.00022768,0.00012102,0.00008992,0.00001078
 ,0.00002147,0.00000981,0.00007925,-0.00005703,-0.00000610,0.00000958,-
 0.00008569,-0.00009146,0.00856546,0.00430186,0.00445645,0.00018604,-0.
 00003184,0.00031239,-0.00000101,-0.00000590,0.00000632,-0.00000039,0.0
 0000045,0.00000021,0.00000266,-0.00000143,0.00000414,0.00000840,0.0000
 0101,-0.00000489,0.10665204,0.00000060,0.00002096,-0.00001190,0.000141
 91,-0.00022419,0.00001721,-0.00000482,0.00005723,0.00003307,-0.0000040
 8,0.00000577,0.00000102,0.00001574,-0.00000914,-0.00000696,-0.00001892
 ,0.00002086,0.00001142,-0.00000476,0.00000482,0.00000505,0.00000058,-0
 .00000113,-0.00000101,-0.00000626,0.00000994,0.00000080,0.00000186,-0.
 00001898,-0.00000607,-0.00002072,0.00001853,-0.00003055,-0.00000398,-0
 .00001982,0.00000447,0.00053427,-0.00018916,-0.00005896,0.00003738,0.0
 0017580,0.00014397,0.00000967,0.00001489,0.00001243,-0.00000404,-0.000
 00125,-0.00000135,-0.00038801,0.00035295,0.00156687,-0.00008468,-0.000
 05252,-0.00061106,0.00007507,-0.00004708,0.00013197,-0.00000124,-0.000
 00294,-0.00000362,-0.10590821,-0.25191555,-0.24185686,0.00618122,0.010
 33971,0.01194444,-0.00000254,0.00000757,0.00000386,-0.00000443,0.00000
 919,0.00000624,0.00000665,-0.00004059,-0.00000641,-0.00000150,0.000011
 20,-0.00000148,-0.00000652,0.00000929,-0.00000198,0.00000054,-0.000000
 03,-0.00000028,-0.00000177,0.00000286,0.00000339,0.00000102,0.00000013
 ,-0.00000063,0.00007298,-0.00001910,-0.00004669,-0.00001106,0.00002164
 ,0.00001369,-0.00006164,0.00000330,0.00004852,-0.00002389,0.00006030,0
 .00000536,-0.00003855,-0.00000560,-0.00000463,0.00000139,-0.00000124,0
 .00000573,-0.00002086,-0.00000811,0.00001231,0.00000104,0.00000148,-0.
 00000200,0.00134579,0.00060408,-0.00058688,-0.00027412,-0.00000894,0.0
 0048338,-0.00049172,0.00004506,-0.00000213,-0.00016613,-0.00035237,0.0
 0012760,-0.00000015,0.00004767,0.00002074,-0.00006929,-0.00000367,0.00
 006097,-0.00000526,-0.00005779,0.00006484,-0.00001402,0.00003481,-0.00
 007777,-0.00009148,-0.00002997,0.00019890,-0.00286702,-0.00011080,0.00
 084649,0.00018294,-0.00009492,-0.00004823,0.00000457,-0.00001769,-0.00
 001114,0.00002470,-0.00001643,0.00000070,-0.00000855,-0.00008824,-0.00
 002397,-0.00040421,-0.00496028,-0.00502297,0.00008891,0.00009224,-0.00
 022798,0.00000153,0.00000490,-0.00000433,0.00000073,-0.00000042,-0.000
 00034,-0.00000029,-0.00000072,0.00000119,0.00000454,0.00000355,-0.0000
 0575,0.10227535,0.24630981,-0.00026248,0.00023907,0.00006035,0.0001808
 6,-0.00083549,-0.00023463,0.00004792,0.00019470,0.00021512,-0.00002061
 ,0.00003583,0.00002842,0.00004756,-0.00001908,-0.00003098,-0.00004219,
 0.00003426,0.00003749,-0.00001190,0.00000968,0.00001451,0.00000034,-0.
 00000257,-0.00000197,-0.00003034,0.00004294,-0.00001194,0.00004468,-0.
 00003533,0.00000771,-0.00000413,0.00023593,-0.00007079,-0.00002119,-0.
 00001482,0.00001120,-0.00045203,0.00207071,0.00044022,0.00001327,0.000
 17025,0.00019005,0.00002030,0.00002506,0.00002356,-0.00000908,-0.00000
 046,-0.00000141,0.00035859,0.00015542,0.00089803,0.00005747,-0.0000422
 3,-0.00081459,0.00007852,-0.00005562,0.00017198,0.00000819,-0.00000615
 ,-0.00000824,-0.12432017,-0.21905735,-0.22728100,-0.00225853,-0.008776
 00,-0.00735841,-0.00001490,0.00000454,0.00001160,-0.00001062,0.0000124
 7,0.00000960,0.00002976,-0.00004069,-0.00000540,-0.00003395,0.00001610
 ,-0.00000747,-0.00001457,0.00001268,-0.00000516,0.00000045,-0.00000124
 ,0.00000017,-0.00000492,0.00000389,0.00000517,0.00000366,0.00000028,-0
 .00000199,0.00008966,-0.00002009,-0.00006717,-0.00001513,0.00002693,0.
 00001843,-0.00008098,0.00000528,0.00006329,-0.00003449,0.00007711,0.00
 000301,-0.00005166,-0.00000761,-0.00000678,0.00000200,-0.00000201,0.00
 000874,-0.00002583,-0.00001050,0.00001690,0.00000282,0.00000081,-0.000
 00247,0.00191780,0.00063773,-0.00091785,-0.00032248,-0.00000230,0.0005
 6261,-0.00067994,0.00006732,0.00000349,-0.00026071,-0.00040958,0.00016
 627,0.00003742,0.00007996,0.00003307,-0.00008432,0.00000090,0.00007804
 ,-0.00001084,-0.00006357,0.00009653,0.00000916,0.00005358,-0.00012737,
 -0.00006090,-0.00002449,0.00016399,-0.00360385,0.00088056,0.00010548,0
 .00023722,-0.00012612,-0.00006556,0.00001275,-0.00002050,-0.00001402,0
 .00009295,-0.00010289,-0.00000306,0.00001119,-0.00011825,-0.00014853,0
 .00234016,-0.00827669,-0.00655824,0.00010629,0.00008306,-0.00029551,0.
 00000146,0.00000674,-0.00000574,0.00000152,-0.00000054,-0.00000083,0.0
 0000412,-0.00000259,0.00000595,-0.00000180,-0.00001287,0.00000190,0.12
 697374,0.23289417,0.24060530,-0.00000472,0.00003808,-0.00000514,-0.000
 00071,-0.00005346,-0.00000016,0.00000771,0.00001586,0.00000633,-0.0000
 0214,0.00000458,0.00000179,0.00000751,-0.00001312,0.00000073,-0.000005
 74,0.00000617,0.00000313,-0.00000467,0.00000416,0.00000226,-0.00000148
 ,-0.00000132,-0.00000130,-0.00000223,0.00000401,-0.00000182,0.00000299
 ,-0.00000213,0.00000004,0.00000055,0.00001410,-0.00000566,-0.00000106,
 -0.00000153,0.00000118,0.00003211,0.00006277,-0.00000538,0.00003210,0.
 00006343,0.00001570,0.00000392,0.00001053,0.00000174,-0.00000159,-0.00
 000060,0.00000015,0.00012468,-0.00001503,0.00002354,-0.00018155,-0.000
 03284,-0.00002398,0.00004202,-0.00000650,0.00001616,0.00000059,0.00000
 083,-0.00000865,0.00004367,-0.00000959,-0.00001339,-0.00000469,-0.0000
 0016,-0.00000441,-0.00000753,-0.00000310,0.00000522,-0.00000345,0.0000
 0018,0.00001179,0.00000623,-0.00003086,-0.00000381,-0.00000024,0.00000
 552,-0.00000122,-0.00000419,0.00000733,-0.00000156,0.00000117,0.000000
 18,-0.00000279,-0.00000392,-0.00000353,0.00000168,0.00000244,-0.000003
 95,-0.00000018,-0.00017845,0.00021432,-0.00014061,0.00003296,-0.000067
 13,0.00000931,-0.00009111,-0.00001309,0.00016109,-0.00002733,0.0000548
 9,0.00000390,-0.00002854,-0.00000874,0.00000550,0.00000326,0.00000105,
 0.00000215,0.00005086,-0.00004228,-0.00000988,-0.00001072,0.00000072,0
 .00000445,-0.00002043,-0.00043792,0.00117920,0.00021753,0.00226113,-0.
 00121299,-0.00028682,0.00016432,-0.00022261,0.00000879,-0.00009865,-0.
 00208496,0.00001171,0.00021690,-0.00021969,-0.00036249,-0.00091902,0.0
 0010129,-0.17195837,-0.20215344,0.15635955,0.00175396,0.00423586,-0.00
 108732,0.00033615,-0.00004317,-0.00014284,0.00027723,0.00008846,-0.000
 22580,0.00025862,-0.00008911,-0.00003310,0.00002599,0.00001459,-0.0000
 2329,0.00000276,-0.00001787,0.00000220,0.00001300,-0.00003669,-0.00001
 670,-0.00024637,-0.00004933,0.00001016,0.00016528,-0.00025003,-0.00156
 230,0.00000035,0.00000313,-0.00000537,0.00000024,0.00000153,-0.0000046
 2,0.00000122,0.00000084,0.00000098,-0.00000049,-0.00000410,0.00000228,
 -0.00001257,0.00000374,0.00001268,0.16998603,-0.00000649,0.00001055,-0
 .00000596,0.00000712,-0.00006125,0.00001104,0.00000637,0.00002424,-0.0
 0001144,0.00001184,0.00002976,-0.00001260,-0.00005500,-0.00008132,-0.0
 0001712,0.00001399,0.00002121,0.00001032,0.00000990,0.00002677,0.00001
 528,0.00000080,-0.00000212,-0.00000183,0.00000241,0.00000674,-0.000005
 50,0.00000072,-0.00000265,0.00000102,0.00000184,0.00001640,-0.00001107
 ,-0.00000205,-0.00000164,0.00000132,0.00003019,0.00007231,-0.00001326,
 0.00011047,0.00016713,0.00001686,0.00001105,0.00001379,0.00000919,-0.0
 0000261,0.00000073,-0.00000461,0.00014795,0.00003384,-0.00010900,-0.00
 054569,-0.00017185,0.00009975,0.00014276,-0.00004003,0.00002338,-0.000
 01565,0.00000519,-0.00001634,0.00004360,-0.00001536,-0.00002069,-0.000
 00884,0.00000089,-0.00000365,0.00009421,0.00013422,0.00000214,-0.00001
 328,0.00009844,-0.00007612,0.00000523,-0.00011763,0.00006766,0.0000274
 4,0.00003205,-0.00002044,-0.00002295,0.00002834,-0.00001968,0.00000137
 ,-0.00000317,0.00000100,0.00001077,0.00006033,0.00003515,-0.00002011,-
 0.00000584,-0.00000440,0.00277594,-0.00102853,0.00075955,-0.00049417,0
 .00083052,0.00002924,-0.00040676,0.00018068,-0.00065385,-0.00002240,0.
 00014299,-0.00006286,-0.00006569,-0.00001328,-0.00008359,0.00000219,-0
 .00000951,0.00001359,-0.00060221,-0.00010842,0.00009826,0.00007396,0.0
 0003518,-0.00007142,-0.00011737,-0.00179345,0.00020004,0.00043726,-0.0
 0071829,0.00040042,-0.00016910,0.00032504,-0.00012753,-0.00042194,0.00
 085407,-0.00351379,-0.00002923,0.00036390,-0.00021349,-0.00264005,0.00
 429018,0.00060318,-0.19504442,-0.24372482,0.16164090,0.00619843,0.0064
 6882,0.00036352,0.00086471,0.00036264,-0.00023526,0.00027376,0.0002914
 1,-0.00012719,0.00008851,-0.00018689,0.00035574,-0.00008556,-0.0004098
 8,0.00003596,-0.00001675,-0.00001890,0.00002313,-0.00002763,-0.0000924
 4,0.00000320,-0.00018384,-0.00009016,0.00007359,-0.00731291,-0.0103331
 3,0.00548477,0.00002872,0.00001755,0.00000769,0.00000880,-0.00000480,-
 0.00000535,-0.00000023,-0.00000223,0.00000095,0.00000039,-0.00000027,-
 0.00000342,-0.00000886,0.00000812,0.00000969,0.19690910,0.24408383,0.0
 0001281,-0.00004033,0.00000228,-0.00001140,0.00008284,-0.00001101,-0.0
 0000596,-0.00004324,0.00001863,0.00000269,-0.00000600,0.00000042,-0.00
 002052,-0.00000131,0.00000651,0.00002504,-0.00002798,-0.00001101,0.000
 00468,-0.00000349,-0.00000810,-0.00000082,0.00000055,-0.00000417,0.000
 00207,-0.00000616,0.00000143,-0.00000374,0.00000428,-0.00000020,0.0000
 0060,-0.00002016,0.00001135,0.00000237,0.00000190,-0.00000201,-0.00002
 420,-0.00008668,0.00003560,-0.00019483,-0.00033187,-0.00000580,-0.0000
 1140,-0.00002388,-0.00001360,0.00000817,0.00000495,-0.00000221,-0.0002
 5906,-0.00007299,0.00020144,0.00115011,0.00045399,-0.00019455,-0.00024
 361,0.00005413,-0.00006080,0.00002816,-0.00001147,0.00002294,-0.000041
 25,0.00001640,0.00003887,0.00001135,-0.00000347,0.00000058,-0.00000170
 ,-0.00003091,-0.00000855,0.00000756,-0.00002002,-0.00000543,-0.0000106
 7,0.00005453,0.00001406,-0.00000370,-0.00001385,0.00000011,0.00000796,
 -0.00001145,0.00000140,0.00000048,0.00000042,-0.00000114,-0.00000078,-
 0.00000809,-0.00000510,0.00000132,0.00000009,0.00000214,-0.00038532,0.
 00020103,0.00007439,0.00003359,-0.00009094,-0.00002453,0.00016882,-0.0
 0005935,-0.00000329,0.00001996,-0.00007019,0.00001299,0.00003248,0.000
 00374,0.00001945,-0.00000150,0.00000447,-0.00000488,0.00008820,0.00003
 191,-0.00003247,-0.00000470,-0.00000990,0.00000882,-0.00007718,-0.0005
 4374,-0.00122465,0.00030411,-0.00143679,0.00161370,0.00018236,0.000029
 50,0.00029663,-0.00074835,-0.00038606,-0.00244573,-0.00013414,0.000331
 35,-0.00033979,0.00043181,0.00011008,-0.00090172,0.13126329,0.13834655
 ,-0.17029080,0.02363785,0.02699055,-0.01062822,-0.00133897,-0.00160464
 ,-0.00132384,-0.00014569,0.00001967,0.00026730,-0.00021912,0.00012656,
 -0.00012802,0.00002567,0.00006201,0.00002047,-0.00000758,0.00001351,0.
 00000686,-0.00001244,0.00014519,0.00000693,0.00019917,0.00010776,-0.00
 023489,-0.00286451,0.00272429,0.00461047,-0.00000737,-0.00000500,0.000
 00057,-0.00000153,-0.00000027,-0.00000377,-0.00000031,0.00000071,-0.00
 000111,-0.00000284,0.00000020,0.00000316,0.00000710,-0.00000687,-0.000
 01108,-0.15087459,-0.16494607,0.18063296\\-0.00002058,-0.00002325,0.00
 000904,0.00001441,0.00002671,-0.00003191,-0.00000555,0.00000934,0.0000
 0456,0.00000155,-0.00001114,0.00000333,-0.00001506,-0.00000679,-0.0000
 0416,0.00001989,0.00002133,0.00001846,0.00001364,-0.00001381,0.0000092
 4,0.00000122,-0.00000074,-0.00000158,0.00000091,0.00000883,0.00001120,
 -0.00000200,0.00000210,0.00000399,0.00000386,-0.00001650,0.00002146,-0
 .00000635,0.00000442,-0.00000807,-0.00001276,-0.00001049,0.00001692,-0
 .00001932,0.00000698,0.00000512,0.00001326,-0.00000397,0.00000777,0.00
 000357,-0.00000285,-0.00000382,-0.00001674,-0.00001322,0.00001768,0.00
 002910,-0.00000330,-0.00003319,0.00000585,-0.00001651,-0.00001275,-0.0
 0000109,0.00000461,-0.00000263,-0.00001072,-0.00000573,0.00002850,0.00
 000066,0.00000143,-0.00002462,0.00000150,0.00000599,0.00001442,0.00000
 989,-0.00000329,0.00003574,-0.00003743,0.00001910,-0.00003333,-0.00000
 393,-0.00002683,0.00002313,0.00001261,0.00000049,0.00001755,-0.0000060
 5,0.00000182,0.00000551,0.00001077,-0.00000093,0.00002689,-0.00000765,
 -0.00000506,0.00000401,-0.00001878,0.00002120,0.00001054,0.00000270,-0
 .00001752,0.00001758,0.00001371,-0.00000923,-0.00000816,0.00005751,0.0
 0000313,0.00000163,-0.00000191,-0.00000584,0.00000668,-0.00000437,0.00
 000975,0.00000358,-0.00000418,0.00001169,0.00000159,0.00000872,-0.0000
 1010,0.00000247,-0.00000025,0.00002784,0.00000742,-0.00001883,-0.00001
 522,-0.00001312,0.00000077,0.00000056,-0.00001118,0.00001836,-0.000015
 20,0.00000609,-0.00002488,0.00000715,-0.00000566,0.00000346,-0.0000094
 8,-0.00000390,-0.00000156,-0.00001634,-0.00000982,-0.00000053,-0.00000
 044,-0.00000404,-0.00001590,-0.00000011,-0.00000072,-0.00000066,-0.000
 00567,0.00001758,-0.00004775,0.00001176,0.00000509,0.00001033,0.000009
 95,-0.00004399,0.00002113,0.00003956,-0.00001776,0.00000282,-0.0000308
 3,-0.00002376,0.00000920,0.00001663,-0.00005169,0.00003232,0.00001961,
 0.00000815,-0.00000295,0.00000531,0.00000249,0.00000678,0.00000228,0.0
 0000146,-0.00000847,-0.00000540,-0.00000012,-0.00000107,-0.00000500,-0
 .00000533,-0.00000593,0.00000838,-0.00001193,-0.00000725,0.00000283,-0
 .00000964\\\@


 IT PROBABLY IS NOT POSSIBLE FOR A SCIENTIST TO INTERROGATE NATURE 
 FROM A WHOLLY DISINTERESTED VIEWPOINT.
 EVEN IF HE HAS NO PARTICULAR AXE TO GRIND, HE IS LIKELY TO HAVE 
 A DISTINCTIVE WAY OF VIEWING NATURE.

                                                   -- JOHN LOSEE
 Job cpu time:       0 days 16 hours 57 minutes 50.4 seconds.
 File lengths (MBytes):  RWF=   6204 Int=      0 D2E=      0 Chk=     83 Scr=      1
 Normal termination of Gaussian 09 at Fri Nov 27 22:25:39 2020.
