 Entering Gaussian System, Link 0=g09
 Initial command:
 /ihome/crc/build/g09/g09-D.01/TAR/g09/l1.exe "/scratch/slurm-2254881/Gau-31191.inp" -scrdir="/scratch/slurm-2254881/"
 Entering Link 1 = /ihome/crc/build/g09/g09-D.01/TAR/g09/l1.exe PID=     31192.
  
 Copyright (c) 1988,1990,1992,1993,1995,1998,2003,2009,2013,
            Gaussian, Inc.  All Rights Reserved.
  
 This is part of the Gaussian(R) 09 program.  It is based on
 the Gaussian(R) 03 system (copyright 2003, Gaussian, Inc.),
 the Gaussian(R) 98 system (copyright 1998, Gaussian, Inc.),
 the Gaussian(R) 94 system (copyright 1995, Gaussian, Inc.),
 the Gaussian 92(TM) system (copyright 1992, Gaussian, Inc.),
 the Gaussian 90(TM) system (copyright 1990, Gaussian, Inc.),
 the Gaussian 88(TM) system (copyright 1988, Gaussian, Inc.),
 the Gaussian 86(TM) system (copyright 1986, Carnegie Mellon
 University), and the Gaussian 82(TM) system (copyright 1983,
 Carnegie Mellon University). Gaussian is a federally registered
 trademark of Gaussian, Inc.
  
 This software contains proprietary and confidential information,
 including trade secrets, belonging to Gaussian, Inc.
  
 This software is provided under written license and may be
 used, copied, transmitted, or stored only in accord with that
 written license.
  
 The following legend is applicable only to US Government
 contracts under FAR:
  
                    RESTRICTED RIGHTS LEGEND
  
 Use, reproduction and disclosure by the US Government is
 subject to restrictions as set forth in subparagraphs (a)
 and (c) of the Commercial Computer Software - Restricted
 Rights clause in FAR 52.227-19.
  
 Gaussian, Inc.
 340 Quinnipiac St., Bldg. 40, Wallingford CT 06492
  
  
 ---------------------------------------------------------------
 Warning -- This program may not be used in any manner that
 competes with the business of Gaussian, Inc. or will provide
 assistance to any competitor of Gaussian, Inc.  The licensee
 of this program is prohibited from giving any competitor of
 Gaussian, Inc. access to this program.  By using this program,
 the user acknowledges that Gaussian, Inc. is engaged in the
 business of creating and licensing software in the field of
 computational chemistry and represents and warrants to the
 licensee that it is not a competitor of Gaussian, Inc. and that
 it will not use this program in any manner prohibited above.
 ---------------------------------------------------------------
  

 Cite this work as:
 Gaussian 09, Revision D.01,
 M. J. Frisch, G. W. Trucks, H. B. Schlegel, G. E. Scuseria, 
 M. A. Robb, J. R. Cheeseman, G. Scalmani, V. Barone, B. Mennucci, 
 G. A. Petersson, H. Nakatsuji, M. Caricato, X. Li, H. P. Hratchian, 
 A. F. Izmaylov, J. Bloino, G. Zheng, J. L. Sonnenberg, M. Hada, 
 M. Ehara, K. Toyota, R. Fukuda, J. Hasegawa, M. Ishida, T. Nakajima, 
 Y. Honda, O. Kitao, H. Nakai, T. Vreven, J. A. Montgomery, Jr., 
 J. E. Peralta, F. Ogliaro, M. Bearpark, J. J. Heyd, E. Brothers, 
 K. N. Kudin, V. N. Staroverov, T. Keith, R. Kobayashi, J. Normand, 
 K. Raghavachari, A. Rendell, J. C. Burant, S. S. Iyengar, J. Tomasi, 
 M. Cossi, N. Rega, J. M. Millam, M. Klene, J. E. Knox, J. B. Cross, 
 V. Bakken, C. Adamo, J. Jaramillo, R. Gomperts, R. E. Stratmann, 
 O. Yazyev, A. J. Austin, R. Cammi, C. Pomelli, J. W. Ochterski, 
 R. L. Martin, K. Morokuma, V. G. Zakrzewski, G. A. Voth, 
 P. Salvador, J. J. Dannenberg, S. Dapprich, A. D. Daniels, 
 O. Farkas, J. B. Foresman, J. V. Ortiz, J. Cioslowski, 
 and D. J. Fox, Gaussian, Inc., Wallingford CT, 2013.
 
 ******************************************
 Gaussian 09:  EM64L-G09RevD.01 24-Apr-2013
                19-Jan-2021 
 ******************************************
 %nprocshared=12
 Will use up to   12 processors via shared memory.
 %mem=250gb
 ----------------------------------------------------------------------
 # opt freq=noraman 6-311g(d,p) scrf=(cpcm,solvent=water) nosymm geom=c
 onnectivity m062x temperature=373
 ----------------------------------------------------------------------
 1/14=-1,18=20,19=15,26=3,38=1,57=2,112=373000/1,3;
 2/9=110,12=2,15=1,17=6,18=5,40=1/2;
 3/5=4,6=6,7=101,11=2,16=1,25=1,30=1,70=2101,71=1,72=1,74=-55/1,2,3;
 4//1;
 5/5=2,38=5,53=1/2;
 6/7=2,8=2,9=2,10=2,28=1/1;
 7/30=1/1,2,3,16;
 1/14=-1,18=20,19=15,26=3/3(2);
 2/9=110,15=1/2;
 99//99;
 2/9=110,15=1/2;
 3/5=4,6=6,7=101,11=2,16=1,25=1,30=1,70=2105,71=1,72=1,74=-55/1,2,3;
 4/5=5,16=3,69=1/1;
 5/5=2,38=5,53=1/2;
 7/30=1/1,2,3,16;
 1/14=-1,18=20,19=15,26=3/3(-5);
 2/9=110,15=1/2;
 6/7=2,8=2,9=2,10=2,19=2,28=1/1;
 99/9=1/99;
 -------------------
 Title Card Required
 -------------------
 Symbolic Z-matrix:
 Charge =  0 Multiplicity = 1
 O                     1.01911  -3.75145   0.1528 
 O                     4.32562  -2.0885    0.36493 
 O                     2.53409   3.91859   0.26499 
 O                    -2.37173  -2.28434  -0.05927 
 O                     4.84096   1.31153   0.11279 
 O                    -3.04929   1.0827    0.20921 
 O                    -0.48538  -2.67968   2.09077 
 O                     4.11327  -0.34044   2.38857 
 O                     2.19199  -1.49367  -1.24076 
 O                    -1.57761   2.01612   2.25875 
 O                    -2.26221  -0.51592  -2.07421 
 O                     3.3556    2.21141  -1.94573 
 O                     2.03555  -1.87199   1.73692 
 O                     4.27933  -0.28947  -1.947 
 O                     3.42533   2.50766   2.37575 
 O                    -0.09934  -1.93037  -1.43083 
 O                    -1.69958   2.35159  -2.07333 
 O                    -2.44766  -0.50366   2.26912 
 Si                    0.99334  -3.14549   1.68151 
 Si                    3.67979  -1.78094   1.81382 
 Si                    2.45675   3.70763   1.87085 
 Si                   -1.74653  -1.93146  -1.50706 
 Si                    4.57078   1.24518  -1.48591 
 Si                   -2.77582   1.02299   1.8077 
 Si                    1.19029  -2.97294  -0.94805 
 O                     6.04262   1.57892   2.72081 
 H                     6.20647   2.42533   3.15519 
 O                     4.05035  -3.00113   2.87774 
 H                     4.97063  -3.25401   2.97998 
 O                     3.0343    5.06685   2.62764 
 H                     2.61073   5.88943   2.37329 
 O                     1.52972  -4.30058   2.71638 
 H                     2.45393  -4.17256   2.97611 
 O                    -4.12685   1.55671   2.60852 
 H                    -4.94722   1.12044   2.36853 
 O                    -3.24895  -3.112     2.53314 
 H                    -3.13002  -4.0504    2.72404 
 O                     0.4106   -4.2235   -1.67021 
 H                    -0.55061  -4.10604  -1.68832 
 O                    -2.04671  -3.16587  -2.57702 
 H                    -2.95324  -3.46005  -2.69124 
 O                    -4.25996   1.44193  -2.37687 
 H                    -4.26351   2.18417  -2.99464 
 O                     2.7613    5.09579  -1.98003 
 H                     3.67301   5.41103  -1.97627 
 O                     5.91337   1.80839  -2.28167 
 H                     6.74238   1.39703  -2.02782 
 O                     4.96594  -2.86488  -1.78849 
 H                     4.87772  -3.7961   -2.02564 
 O                    -0.90329   3.81349   0.03649 
 O                     0.5054    2.55242  -0.76805 
 O                     0.92138   3.43291   2.3302 
 Si                   -0.6576    3.65853  -1.26271 
 O                    -1.53774   4.8837    2.42347 
 H                    -1.77771   5.584     1.80311 
 O                    -1.41669   5.01138  -1.85243 
 H                    -0.95597   5.83943  -1.70133 
 Al                   -2.00774  -2.02711   1.60976 
 Al                   -2.64641   1.0561   -1.45545 
 Al                   -0.66858   3.35607   1.67507 
 Al                    2.14185   3.53864  -1.06962 
 Al                    4.42911   1.2497    1.77454 
 Al                    3.6664   -1.86509  -0.84821 
 H                    -3.82248  -2.71733   3.2021 
 H                    -4.86876   0.7634   -2.69355 
 H                    -1.32229   5.27731   3.27749 
 H                     2.33411   5.37175  -2.80033 
 H                     6.42051   0.871     3.25802 
 H                     5.53147  -2.42141  -2.4331 
 

 GradGradGradGradGradGradGradGradGradGradGradGradGradGradGradGradGradGrad
 Berny optimization.
 Initialization pass.
                           ----------------------------
                           !    Initial Parameters    !
                           ! (Angstroms and Degrees)  !
 --------------------------                            --------------------------
 ! Name  Definition              Value          Derivative Info.                !
 --------------------------------------------------------------------------------
 ! R1    R(1,19)                 1.6446         estimate D2E/DX2                !
 ! R2    R(1,25)                 1.3591         estimate D2E/DX2                !
 ! R3    R(2,20)                 1.6159         estimate D2E/DX2                !
 ! R4    R(2,63)                 1.3986         estimate D2E/DX2                !
 ! R5    R(3,21)                 1.6215         estimate D2E/DX2                !
 ! R6    R(3,61)                 1.442          estimate D2E/DX2                !
 ! R7    R(4,22)                 1.616          estimate D2E/DX2                !
 ! R8    R(4,58)                 1.7275         estimate D2E/DX2                !
 ! R9    R(5,23)                 1.6227         estimate D2E/DX2                !
 ! R10   R(5,62)                 1.7131         estimate D2E/DX2                !
 ! R11   R(6,24)                 1.6228         estimate D2E/DX2                !
 ! R12   R(6,59)                 1.7129         estimate D2E/DX2                !
 ! R13   R(7,19)                 1.6035         estimate D2E/DX2                !
 ! R14   R(7,58)                 1.7248         estimate D2E/DX2                !
 ! R15   R(8,20)                 1.6104         estimate D2E/DX2                !
 ! R16   R(8,62)                 1.7336         estimate D2E/DX2                !
 ! R17   R(9,25)                 1.8103         estimate D2E/DX2                !
 ! R18   R(9,63)                 1.5703         estimate D2E/DX2                !
 ! R19   R(10,24)                1.6203         estimate D2E/DX2                !
 ! R20   R(10,60)                1.7212         estimate D2E/DX2                !
 ! R21   R(11,22)                1.6098         estimate D2E/DX2                !
 ! R22   R(11,59)                1.7325         estimate D2E/DX2                !
 ! R23   R(12,23)                1.6192         estimate D2E/DX2                !
 ! R24   R(12,61)                2.0006         estimate D2E/DX2                !
 ! R25   R(13,19)                1.6465         estimate D2E/DX2                !
 ! R26   R(13,20)                1.6486         estimate D2E/DX2                !
 ! R27   R(14,23)                1.6287         estimate D2E/DX2                !
 ! R28   R(14,63)                2.0163         estimate D2E/DX2                !
 ! R29   R(15,21)                1.6226         estimate D2E/DX2                !
 ! R30   R(15,62)                1.718          estimate D2E/DX2                !
 ! R31   R(16,22)                1.649          estimate D2E/DX2                !
 ! R32   R(16,25)                1.7272         estimate D2E/DX2                !
 ! R33   R(17,53)                1.8577         estimate D2E/DX2                !
 ! R34   R(17,59)                1.7195         estimate D2E/DX2                !
 ! R35   R(18,24)                1.6283         estimate D2E/DX2                !
 ! R36   R(18,58)                1.7173         estimate D2E/DX2                !
 ! R37   R(19,32)                1.641          estimate D2E/DX2                !
 ! R38   R(20,28)                1.6608         estimate D2E/DX2                !
 ! R39   R(21,30)                1.6595         estimate D2E/DX2                !
 ! R40   R(21,52)                1.626          estimate D2E/DX2                !
 ! R41   R(22,40)                1.6609         estimate D2E/DX2                !
 ! R42   R(23,46)                1.6592         estimate D2E/DX2                !
 ! R43   R(24,34)                1.6587         estimate D2E/DX2                !
 ! R44   R(25,38)                1.6411         estimate D2E/DX2                !
 ! R45   R(26,27)                0.9654         estimate D2E/DX2                !
 ! R46   R(26,62)                1.8993         estimate D2E/DX2                !
 ! R47   R(26,68)                0.9657         estimate D2E/DX2                !
 ! R48   R(28,29)                0.9599         estimate D2E/DX2                !
 ! R49   R(30,31)                0.9596         estimate D2E/DX2                !
 ! R50   R(32,33)                0.9685         estimate D2E/DX2                !
 ! R51   R(34,35)                0.9597         estimate D2E/DX2                !
 ! R52   R(36,37)                0.965          estimate D2E/DX2                !
 ! R53   R(36,58)                1.8895         estimate D2E/DX2                !
 ! R54   R(36,64)                0.9655         estimate D2E/DX2                !
 ! R55   R(38,39)                0.9685         estimate D2E/DX2                !
 ! R56   R(40,41)                0.9599         estimate D2E/DX2                !
 ! R57   R(42,43)                0.9657         estimate D2E/DX2                !
 ! R58   R(42,59)                1.8977         estimate D2E/DX2                !
 ! R59   R(42,65)                0.9651         estimate D2E/DX2                !
 ! R60   R(44,45)                0.9647         estimate D2E/DX2                !
 ! R61   R(44,61)                1.9072         estimate D2E/DX2                !
 ! R62   R(44,67)                0.9652         estimate D2E/DX2                !
 ! R63   R(46,47)                0.9596         estimate D2E/DX2                !
 ! R64   R(48,49)                0.965          estimate D2E/DX2                !
 ! R65   R(48,63)                1.8901         estimate D2E/DX2                !
 ! R66   R(48,69)                0.9654         estimate D2E/DX2                !
 ! R67   R(50,53)                1.3313         estimate D2E/DX2                !
 ! R68   R(50,60)                1.7173         estimate D2E/DX2                !
 ! R69   R(51,53)                1.6795         estimate D2E/DX2                !
 ! R70   R(51,61)                1.9343         estimate D2E/DX2                !
 ! R71   R(52,60)                1.7214         estimate D2E/DX2                !
 ! R72   R(53,56)                1.6596         estimate D2E/DX2                !
 ! R73   R(54,55)                0.9658         estimate D2E/DX2                !
 ! R74   R(54,60)                1.9103         estimate D2E/DX2                !
 ! R75   R(54,66)                0.9647         estimate D2E/DX2                !
 ! R76   R(56,57)                0.9596         estimate D2E/DX2                !
 ! A1    A(19,1,25)            122.9432         estimate D2E/DX2                !
 ! A2    A(20,2,63)            123.984          estimate D2E/DX2                !
 ! A3    A(21,3,61)            150.3818         estimate D2E/DX2                !
 ! A4    A(22,4,58)            138.7241         estimate D2E/DX2                !
 ! A5    A(23,5,62)            156.0834         estimate D2E/DX2                !
 ! A6    A(24,6,59)            156.4984         estimate D2E/DX2                !
 ! A7    A(19,7,58)            148.5082         estimate D2E/DX2                !
 ! A8    A(20,8,62)            137.9985         estimate D2E/DX2                !
 ! A9    A(25,9,63)            106.6087         estimate D2E/DX2                !
 ! A10   A(24,10,60)           140.6522         estimate D2E/DX2                !
 ! A11   A(22,11,59)           137.9947         estimate D2E/DX2                !
 ! A12   A(23,12,61)           136.6238         estimate D2E/DX2                !
 ! A13   A(19,13,20)           132.501          estimate D2E/DX2                !
 ! A14   A(23,14,63)           129.5259         estimate D2E/DX2                !
 ! A15   A(21,15,62)           141.3851         estimate D2E/DX2                !
 ! A16   A(22,16,25)           139.3225         estimate D2E/DX2                !
 ! A17   A(53,17,59)           133.0102         estimate D2E/DX2                !
 ! A18   A(24,18,58)           140.7661         estimate D2E/DX2                !
 ! A19   A(1,19,7)             111.0225         estimate D2E/DX2                !
 ! A20   A(1,19,13)            107.8385         estimate D2E/DX2                !
 ! A21   A(1,19,32)            108.767          estimate D2E/DX2                !
 ! A22   A(7,19,13)            110.515          estimate D2E/DX2                !
 ! A23   A(7,19,32)            110.1789         estimate D2E/DX2                !
 ! A24   A(13,19,32)           108.4394         estimate D2E/DX2                !
 ! A25   A(2,20,8)             112.5011         estimate D2E/DX2                !
 ! A26   A(2,20,13)            110.2609         estimate D2E/DX2                !
 ! A27   A(2,20,28)            110.2064         estimate D2E/DX2                !
 ! A28   A(8,20,13)            109.5441         estimate D2E/DX2                !
 ! A29   A(8,20,28)            111.6242         estimate D2E/DX2                !
 ! A30   A(13,20,28)           102.2307         estimate D2E/DX2                !
 ! A31   A(3,21,15)            112.0798         estimate D2E/DX2                !
 ! A32   A(3,21,30)            109.1772         estimate D2E/DX2                !
 ! A33   A(3,21,52)            110.2918         estimate D2E/DX2                !
 ! A34   A(15,21,30)           104.8367         estimate D2E/DX2                !
 ! A35   A(15,21,52)           110.5359         estimate D2E/DX2                !
 ! A36   A(30,21,52)           109.7666         estimate D2E/DX2                !
 ! A37   A(4,22,11)            112.5648         estimate D2E/DX2                !
 ! A38   A(4,22,16)            110.1936         estimate D2E/DX2                !
 ! A39   A(4,22,40)            110.1769         estimate D2E/DX2                !
 ! A40   A(11,22,16)           109.6158         estimate D2E/DX2                !
 ! A41   A(11,22,40)           111.634          estimate D2E/DX2                !
 ! A42   A(16,22,40)           102.1697         estimate D2E/DX2                !
 ! A43   A(5,23,12)            112.354          estimate D2E/DX2                !
 ! A44   A(5,23,14)            110.3181         estimate D2E/DX2                !
 ! A45   A(5,23,46)            108.8986         estimate D2E/DX2                !
 ! A46   A(12,23,14)           110.34           estimate D2E/DX2                !
 ! A47   A(12,23,46)           105.5762         estimate D2E/DX2                !
 ! A48   A(14,23,46)           109.2002         estimate D2E/DX2                !
 ! A49   A(6,24,10)            112.1023         estimate D2E/DX2                !
 ! A50   A(6,24,18)            110.3404         estimate D2E/DX2                !
 ! A51   A(6,24,34)            109.0539         estimate D2E/DX2                !
 ! A52   A(10,24,18)           110.2881         estimate D2E/DX2                !
 ! A53   A(10,24,34)           105.7057         estimate D2E/DX2                !
 ! A54   A(18,24,34)           109.2093         estimate D2E/DX2                !
 ! A55   A(1,25,9)             131.9665         estimate D2E/DX2                !
 ! A56   A(1,25,16)            118.562          estimate D2E/DX2                !
 ! A57   A(1,25,38)             81.9582         estimate D2E/DX2                !
 ! A58   A(9,25,16)             82.8027         estimate D2E/DX2                !
 ! A59   A(9,25,38)            144.5266         estimate D2E/DX2                !
 ! A60   A(16,25,38)            88.9818         estimate D2E/DX2                !
 ! A61   A(27,26,62)           121.3559         estimate D2E/DX2                !
 ! A62   A(27,26,68)           109.0266         estimate D2E/DX2                !
 ! A63   A(62,26,68)           118.8511         estimate D2E/DX2                !
 ! A64   A(20,28,29)           118.4072         estimate D2E/DX2                !
 ! A65   A(21,30,31)           115.3176         estimate D2E/DX2                !
 ! A66   A(19,32,33)           112.8294         estimate D2E/DX2                !
 ! A67   A(24,34,35)           115.4209         estimate D2E/DX2                !
 ! A68   A(37,36,58)           125.0341         estimate D2E/DX2                !
 ! A69   A(37,36,64)           109.491          estimate D2E/DX2                !
 ! A70   A(58,36,64)           119.6106         estimate D2E/DX2                !
 ! A71   A(25,38,39)           112.7878         estimate D2E/DX2                !
 ! A72   A(22,40,41)           118.3665         estimate D2E/DX2                !
 ! A73   A(43,42,59)           118.0343         estimate D2E/DX2                !
 ! A74   A(43,42,65)           109.1567         estimate D2E/DX2                !
 ! A75   A(59,42,65)           123.5564         estimate D2E/DX2                !
 ! A76   A(45,44,61)           124.8843         estimate D2E/DX2                !
 ! A77   A(45,44,67)           109.1582         estimate D2E/DX2                !
 ! A78   A(61,44,67)           119.6961         estimate D2E/DX2                !
 ! A79   A(23,46,47)           115.255          estimate D2E/DX2                !
 ! A80   A(49,48,63)           124.7401         estimate D2E/DX2                !
 ! A81   A(49,48,69)           109.4357         estimate D2E/DX2                !
 ! A82   A(63,48,69)           119.4686         estimate D2E/DX2                !
 ! A83   A(53,50,60)           151.0353         estimate D2E/DX2                !
 ! A84   A(53,51,61)           101.7787         estimate D2E/DX2                !
 ! A85   A(21,52,60)           140.5528         estimate D2E/DX2                !
 ! A86   A(17,53,50)           113.8428         estimate D2E/DX2                !
 ! A87   A(17,53,51)            93.072          estimate D2E/DX2                !
 ! A88   A(17,53,56)            99.3168         estimate D2E/DX2                !
 ! A89   A(50,53,51)            85.2406         estimate D2E/DX2                !
 ! A90   A(50,53,56)            99.6412         estimate D2E/DX2                !
 ! A91   A(51,53,56)           163.3876         estimate D2E/DX2                !
 ! A92   A(55,54,60)           116.1829         estimate D2E/DX2                !
 ! A93   A(55,54,66)           109.1622         estimate D2E/DX2                !
 ! A94   A(60,54,66)           124.8534         estimate D2E/DX2                !
 ! A95   A(53,56,57)           115.334          estimate D2E/DX2                !
 ! A96   A(4,58,7)             113.5206         estimate D2E/DX2                !
 ! A97   A(4,58,18)            116.6838         estimate D2E/DX2                !
 ! A98   A(4,58,36)            104.3736         estimate D2E/DX2                !
 ! A99   A(7,58,18)            117.0438         estimate D2E/DX2                !
 ! A100  A(7,58,36)            103.0784         estimate D2E/DX2                !
 ! A101  A(18,58,36)            98.8264         estimate D2E/DX2                !
 ! A102  A(6,59,11)            114.4136         estimate D2E/DX2                !
 ! A103  A(6,59,17)            117.8418         estimate D2E/DX2                !
 ! A104  A(6,59,42)            105.5876         estimate D2E/DX2                !
 ! A105  A(11,59,17)           115.6695         estimate D2E/DX2                !
 ! A106  A(11,59,42)           101.5146         estimate D2E/DX2                !
 ! A107  A(17,59,42)            98.079          estimate D2E/DX2                !
 ! A108  A(10,60,50)           117.3058         estimate D2E/DX2                !
 ! A109  A(10,60,52)           113.1732         estimate D2E/DX2                !
 ! A110  A(10,60,54)           104.4423         estimate D2E/DX2                !
 ! A111  A(50,60,52)           118.5212         estimate D2E/DX2                !
 ! A112  A(50,60,54)            95.6598         estimate D2E/DX2                !
 ! A113  A(52,60,54)           103.6184         estimate D2E/DX2                !
 ! A114  A(3,61,12)            114.5245         estimate D2E/DX2                !
 ! A115  A(3,61,44)             97.9512         estimate D2E/DX2                !
 ! A116  A(3,61,51)            102.7192         estimate D2E/DX2                !
 ! A117  A(12,61,44)            97.791          estimate D2E/DX2                !
 ! A118  A(12,61,51)           104.0814         estimate D2E/DX2                !
 ! A119  A(44,61,51)           139.9511         estimate D2E/DX2                !
 ! A120  A(5,62,8)             114.8647         estimate D2E/DX2                !
 ! A121  A(5,62,15)            116.9677         estimate D2E/DX2                !
 ! A122  A(5,62,26)            105.8303         estimate D2E/DX2                !
 ! A123  A(8,62,15)            116.1831         estimate D2E/DX2                !
 ! A124  A(8,62,26)             97.8917         estimate D2E/DX2                !
 ! A125  A(15,62,26)           101.2497         estimate D2E/DX2                !
 ! A126  A(2,63,9)             134.1982         estimate D2E/DX2                !
 ! A127  A(2,63,14)            117.0141         estimate D2E/DX2                !
 ! A128  A(2,63,48)             91.3145         estimate D2E/DX2                !
 ! A129  A(9,63,14)             87.958          estimate D2E/DX2                !
 ! A130  A(9,63,48)            130.2638         estimate D2E/DX2                !
 ! A131  A(14,63,48)            86.1725         estimate D2E/DX2                !
 ! D1    D(25,1,19,7)           87.176          estimate D2E/DX2                !
 ! D2    D(25,1,19,13)         -34.0273         estimate D2E/DX2                !
 ! D3    D(25,1,19,32)        -151.4324         estimate D2E/DX2                !
 ! D4    D(19,1,25,9)           35.8537         estimate D2E/DX2                !
 ! D5    D(19,1,25,16)         -71.4668         estimate D2E/DX2                !
 ! D6    D(19,1,25,38)        -155.8806         estimate D2E/DX2                !
 ! D7    D(63,2,20,8)          -95.9672         estimate D2E/DX2                !
 ! D8    D(63,2,20,13)          26.6409         estimate D2E/DX2                !
 ! D9    D(63,2,20,28)         138.7575         estimate D2E/DX2                !
 ! D10   D(20,2,63,9)           -9.7886         estimate D2E/DX2                !
 ! D11   D(20,2,63,14)         106.3137         estimate D2E/DX2                !
 ! D12   D(20,2,63,48)        -167.3126         estimate D2E/DX2                !
 ! D13   D(61,3,21,15)          81.0462         estimate D2E/DX2                !
 ! D14   D(61,3,21,30)        -163.2545         estimate D2E/DX2                !
 ! D15   D(61,3,21,52)         -42.5677         estimate D2E/DX2                !
 ! D16   D(21,3,61,12)         -91.9737         estimate D2E/DX2                !
 ! D17   D(21,3,61,44)         165.6593         estimate D2E/DX2                !
 ! D18   D(21,3,61,51)          20.1825         estimate D2E/DX2                !
 ! D19   D(58,4,22,11)         -88.9244         estimate D2E/DX2                !
 ! D20   D(58,4,22,16)          33.772          estimate D2E/DX2                !
 ! D21   D(58,4,22,40)         145.7627         estimate D2E/DX2                !
 ! D22   D(22,4,58,7)          -59.2876         estimate D2E/DX2                !
 ! D23   D(22,4,58,18)          81.4018         estimate D2E/DX2                !
 ! D24   D(22,4,58,36)        -170.7752         estimate D2E/DX2                !
 ! D25   D(62,5,23,12)          51.9496         estimate D2E/DX2                !
 ! D26   D(62,5,23,14)         -71.626          estimate D2E/DX2                !
 ! D27   D(62,5,23,46)         168.5437         estimate D2E/DX2                !
 ! D28   D(23,5,62,8)           73.6958         estimate D2E/DX2                !
 ! D29   D(23,5,62,15)         -67.6985         estimate D2E/DX2                !
 ! D30   D(23,5,62,26)        -179.5243         estimate D2E/DX2                !
 ! D31   D(59,6,24,10)          49.7068         estimate D2E/DX2                !
 ! D32   D(59,6,24,18)         -73.6382         estimate D2E/DX2                !
 ! D33   D(59,6,24,34)         166.4096         estimate D2E/DX2                !
 ! D34   D(24,6,59,11)          74.3415         estimate D2E/DX2                !
 ! D35   D(24,6,59,17)         -66.7121         estimate D2E/DX2                !
 ! D36   D(24,6,59,42)        -174.9131         estimate D2E/DX2                !
 ! D37   D(58,7,19,1)          -32.3581         estimate D2E/DX2                !
 ! D38   D(58,7,19,13)          87.2592         estimate D2E/DX2                !
 ! D39   D(58,7,19,32)        -152.918          estimate D2E/DX2                !
 ! D40   D(19,7,58,4)           24.5012         estimate D2E/DX2                !
 ! D41   D(19,7,58,18)        -116.0386         estimate D2E/DX2                !
 ! D42   D(19,7,58,36)         136.7764         estimate D2E/DX2                !
 ! D43   D(62,8,20,2)           35.988          estimate D2E/DX2                !
 ! D44   D(62,8,20,13)         -87.0227         estimate D2E/DX2                !
 ! D45   D(62,8,20,28)         160.4861         estimate D2E/DX2                !
 ! D46   D(20,8,62,5)          -22.3132         estimate D2E/DX2                !
 ! D47   D(20,8,62,15)         119.3927         estimate D2E/DX2                !
 ! D48   D(20,8,62,26)        -133.8915         estimate D2E/DX2                !
 ! D49   D(63,9,25,1)           54.789          estimate D2E/DX2                !
 ! D50   D(63,9,25,16)         177.1029         estimate D2E/DX2                !
 ! D51   D(63,9,25,38)        -104.9068         estimate D2E/DX2                !
 ! D52   D(25,9,63,2)          -72.2686         estimate D2E/DX2                !
 ! D53   D(25,9,63,14)         160.9132         estimate D2E/DX2                !
 ! D54   D(25,9,63,48)          77.6745         estimate D2E/DX2                !
 ! D55   D(60,10,24,6)          16.0114         estimate D2E/DX2                !
 ! D56   D(60,10,24,18)        139.3858         estimate D2E/DX2                !
 ! D57   D(60,10,24,34)       -102.6878         estimate D2E/DX2                !
 ! D58   D(24,10,60,50)         -7.7995         estimate D2E/DX2                !
 ! D59   D(24,10,60,52)       -151.4589         estimate D2E/DX2                !
 ! D60   D(24,10,60,54)         96.5343         estimate D2E/DX2                !
 ! D61   D(59,11,22,4)          37.1187         estimate D2E/DX2                !
 ! D62   D(59,11,22,16)        -85.9016         estimate D2E/DX2                !
 ! D63   D(59,11,22,40)        161.6342         estimate D2E/DX2                !
 ! D64   D(22,11,59,6)         -23.0959         estimate D2E/DX2                !
 ! D65   D(22,11,59,17)        118.8292         estimate D2E/DX2                !
 ! D66   D(22,11,59,42)       -136.2763         estimate D2E/DX2                !
 ! D67   D(61,12,23,5)           3.4729         estimate D2E/DX2                !
 ! D68   D(61,12,23,14)        127.0363         estimate D2E/DX2                !
 ! D69   D(61,12,23,46)       -115.0949         estimate D2E/DX2                !
 ! D70   D(23,12,61,3)          11.8768         estimate D2E/DX2                !
 ! D71   D(23,12,61,44)        114.3444         estimate D2E/DX2                !
 ! D72   D(23,12,61,51)        -99.466          estimate D2E/DX2                !
 ! D73   D(20,13,19,1)         -76.9158         estimate D2E/DX2                !
 ! D74   D(20,13,19,7)         161.565          estimate D2E/DX2                !
 ! D75   D(20,13,19,32)         40.701          estimate D2E/DX2                !
 ! D76   D(19,13,20,2)          76.7635         estimate D2E/DX2                !
 ! D77   D(19,13,20,8)        -158.909          estimate D2E/DX2                !
 ! D78   D(19,13,20,28)        -40.4142         estimate D2E/DX2                !
 ! D79   D(63,14,23,5)          21.0014         estimate D2E/DX2                !
 ! D80   D(63,14,23,12)       -103.7345         estimate D2E/DX2                !
 ! D81   D(63,14,23,46)        140.6494         estimate D2E/DX2                !
 ! D82   D(23,14,63,2)         -47.0227         estimate D2E/DX2                !
 ! D83   D(23,14,63,9)          92.87           estimate D2E/DX2                !
 ! D84   D(23,14,63,48)       -136.547          estimate D2E/DX2                !
 ! D85   D(62,15,21,3)          -7.8503         estimate D2E/DX2                !
 ! D86   D(62,15,21,30)       -126.1556         estimate D2E/DX2                !
 ! D87   D(62,15,21,52)        115.6266         estimate D2E/DX2                !
 ! D88   D(21,15,62,5)          14.1464         estimate D2E/DX2                !
 ! D89   D(21,15,62,8)        -126.7406         estimate D2E/DX2                !
 ! D90   D(21,15,62,26)        128.5569         estimate D2E/DX2                !
 ! D91   D(25,16,22,4)          54.5092         estimate D2E/DX2                !
 ! D92   D(25,16,22,11)        178.9208         estimate D2E/DX2                !
 ! D93   D(25,16,22,40)        -62.5735         estimate D2E/DX2                !
 ! D94   D(22,16,25,1)         -37.963          estimate D2E/DX2                !
 ! D95   D(22,16,25,9)        -172.2823         estimate D2E/DX2                !
 ! D96   D(22,16,25,38)         42.3085         estimate D2E/DX2                !
 ! D97   D(59,17,53,50)        -16.7824         estimate D2E/DX2                !
 ! D98   D(59,17,53,51)         69.3687         estimate D2E/DX2                !
 ! D99   D(59,17,53,56)       -121.7372         estimate D2E/DX2                !
 ! D100  D(53,17,59,6)          15.9665         estimate D2E/DX2                !
 ! D101  D(53,17,59,11)       -124.6088         estimate D2E/DX2                !
 ! D102  D(53,17,59,42)        128.4185         estimate D2E/DX2                !
 ! D103  D(58,18,24,6)          15.4489         estimate D2E/DX2                !
 ! D104  D(58,18,24,10)       -108.9443         estimate D2E/DX2                !
 ! D105  D(58,18,24,34)        135.3075         estimate D2E/DX2                !
 ! D106  D(24,18,58,4)         -21.8642         estimate D2E/DX2                !
 ! D107  D(24,18,58,7)         117.4282         estimate D2E/DX2                !
 ! D108  D(24,18,58,36)       -132.9155         estimate D2E/DX2                !
 ! D109  D(1,19,32,33)         100.4441         estimate D2E/DX2                !
 ! D110  D(7,19,32,33)        -137.6498         estimate D2E/DX2                !
 ! D111  D(13,19,32,33)        -16.5781         estimate D2E/DX2                !
 ! D112  D(2,20,28,29)          52.5296         estimate D2E/DX2                !
 ! D113  D(8,20,28,29)         -73.2434         estimate D2E/DX2                !
 ! D114  D(13,20,28,29)        169.7465         estimate D2E/DX2                !
 ! D115  D(3,21,30,31)          54.6925         estimate D2E/DX2                !
 ! D116  D(15,21,30,31)        174.9468         estimate D2E/DX2                !
 ! D117  D(52,21,30,31)        -66.315          estimate D2E/DX2                !
 ! D118  D(3,21,52,60)          -3.4413         estimate D2E/DX2                !
 ! D119  D(15,21,52,60)       -127.946          estimate D2E/DX2                !
 ! D120  D(30,21,52,60)        116.892          estimate D2E/DX2                !
 ! D121  D(4,22,40,41)          53.6481         estimate D2E/DX2                !
 ! D122  D(11,22,40,41)        -72.1931         estimate D2E/DX2                !
 ! D123  D(16,22,40,41)        170.7429         estimate D2E/DX2                !
 ! D124  D(5,23,46,47)          52.1449         estimate D2E/DX2                !
 ! D125  D(12,23,46,47)        172.9927         estimate D2E/DX2                !
 ! D126  D(14,23,46,47)        -68.3761         estimate D2E/DX2                !
 ! D127  D(6,24,34,35)          52.9977         estimate D2E/DX2                !
 ! D128  D(10,24,34,35)        173.7034         estimate D2E/DX2                !
 ! D129  D(18,24,34,35)        -67.6505         estimate D2E/DX2                !
 ! D130  D(1,25,38,39)          90.8656         estimate D2E/DX2                !
 ! D131  D(9,25,38,39)        -104.2385         estimate D2E/DX2                !
 ! D132  D(16,25,38,39)        -28.176          estimate D2E/DX2                !
 ! D133  D(27,26,62,5)         105.6823         estimate D2E/DX2                !
 ! D134  D(27,26,62,8)        -135.5975         estimate D2E/DX2                !
 ! D135  D(27,26,62,15)        -16.7972         estimate D2E/DX2                !
 ! D136  D(68,26,62,5)        -113.8233         estimate D2E/DX2                !
 ! D137  D(68,26,62,8)           4.897          estimate D2E/DX2                !
 ! D138  D(68,26,62,15)        123.6973         estimate D2E/DX2                !
 ! D139  D(37,36,58,4)          84.9215         estimate D2E/DX2                !
 ! D140  D(37,36,58,7)         -33.9259         estimate D2E/DX2                !
 ! D141  D(37,36,58,18)       -154.4863         estimate D2E/DX2                !
 ! D142  D(64,36,58,4)        -124.9489         estimate D2E/DX2                !
 ! D143  D(64,36,58,7)         116.2036         estimate D2E/DX2                !
 ! D144  D(64,36,58,18)         -4.3567         estimate D2E/DX2                !
 ! D145  D(43,42,59,6)         124.5848         estimate D2E/DX2                !
 ! D146  D(43,42,59,11)       -115.762          estimate D2E/DX2                !
 ! D147  D(43,42,59,17)          2.625          estimate D2E/DX2                !
 ! D148  D(65,42,59,6)         -92.35           estimate D2E/DX2                !
 ! D149  D(65,42,59,11)         27.3031         estimate D2E/DX2                !
 ! D150  D(65,42,59,17)        145.6901         estimate D2E/DX2                !
 ! D151  D(45,44,61,3)          58.3839         estimate D2E/DX2                !
 ! D152  D(45,44,61,12)        -57.8558         estimate D2E/DX2                !
 ! D153  D(45,44,61,51)        179.159          estimate D2E/DX2                !
 ! D154  D(67,44,61,3)        -152.5048         estimate D2E/DX2                !
 ! D155  D(67,44,61,12)         91.2556         estimate D2E/DX2                !
 ! D156  D(67,44,61,51)        -31.7296         estimate D2E/DX2                !
 ! D157  D(49,48,63,2)          96.2211         estimate D2E/DX2                !
 ! D158  D(49,48,63,9)         -62.7292         estimate D2E/DX2                !
 ! D159  D(49,48,63,14)       -146.7905         estimate D2E/DX2                !
 ! D160  D(69,48,63,2)        -114.8033         estimate D2E/DX2                !
 ! D161  D(69,48,63,9)          86.2464         estimate D2E/DX2                !
 ! D162  D(69,48,63,14)          2.1851         estimate D2E/DX2                !
 ! D163  D(60,50,53,17)         83.7728         estimate D2E/DX2                !
 ! D164  D(60,50,53,51)         -7.4876         estimate D2E/DX2                !
 ! D165  D(60,50,53,56)       -171.4766         estimate D2E/DX2                !
 ! D166  D(53,50,60,10)        -81.5049         estimate D2E/DX2                !
 ! D167  D(53,50,60,52)         60.1776         estimate D2E/DX2                !
 ! D168  D(53,50,60,54)        169.0308         estimate D2E/DX2                !
 ! D169  D(61,51,53,17)        140.4981         estimate D2E/DX2                !
 ! D170  D(61,51,53,50)       -105.8147         estimate D2E/DX2                !
 ! D171  D(61,51,53,56)          2.1699         estimate D2E/DX2                !
 ! D172  D(53,51,61,3)         104.71           estimate D2E/DX2                !
 ! D173  D(53,51,61,12)       -135.5989         estimate D2E/DX2                !
 ! D174  D(53,51,61,44)        -14.5597         estimate D2E/DX2                !
 ! D175  D(21,52,60,10)        136.2825         estimate D2E/DX2                !
 ! D176  D(21,52,60,50)         -6.899          estimate D2E/DX2                !
 ! D177  D(21,52,60,54)       -111.2077         estimate D2E/DX2                !
 ! D178  D(17,53,56,57)       -169.1172         estimate D2E/DX2                !
 ! D179  D(50,53,56,57)         74.5636         estimate D2E/DX2                !
 ! D180  D(51,53,56,57)        -31.3994         estimate D2E/DX2                !
 ! D181  D(55,54,60,10)       -128.5029         estimate D2E/DX2                !
 ! D182  D(55,54,60,50)         -8.4            estimate D2E/DX2                !
 ! D183  D(55,54,60,52)        112.7789         estimate D2E/DX2                !
 ! D184  D(66,54,60,10)         89.4845         estimate D2E/DX2                !
 ! D185  D(66,54,60,50)       -150.4126         estimate D2E/DX2                !
 ! D186  D(66,54,60,52)        -29.2337         estimate D2E/DX2                !
 --------------------------------------------------------------------------------
 Trust Radius=3.00D-01 FncErr=1.00D-07 GrdErr=1.00D-06
 Number of steps in this run=    403 maximum allowed number of steps=    414.
 GradGradGradGradGradGradGradGradGradGradGradGradGradGradGradGradGradGrad

 Symmetry turned off by external request.
 Stoichiometry    Al6H20O35Si8
 Framework group  C1[X(Al6H20O35Si8)]
 Deg. of freedom   201
 Full point group                 C1      NOp   1
                          Input orientation:                          
 ---------------------------------------------------------------------
 Center     Atomic      Atomic             Coordinates (Angstroms)
 Number     Number       Type             X           Y           Z
 ---------------------------------------------------------------------
      1          8           0        1.019108   -3.751446    0.152798
      2          8           0        4.325619   -2.088504    0.364925
      3          8           0        2.534093    3.918585    0.264991
      4          8           0       -2.371726   -2.284340   -0.059266
      5          8           0        4.840958    1.311532    0.112792
      6          8           0       -3.049293    1.082700    0.209209
      7          8           0       -0.485382   -2.679684    2.090769
      8          8           0        4.113270   -0.340440    2.388565
      9          8           0        2.191987   -1.493671   -1.240756
     10          8           0       -1.577605    2.016116    2.258750
     11          8           0       -2.262209   -0.515918   -2.074209
     12          8           0        3.355597    2.211411   -1.945729
     13          8           0        2.035549   -1.871987    1.736920
     14          8           0        4.279333   -0.289466   -1.946997
     15          8           0        3.425328    2.507663    2.375751
     16          8           0       -0.099338   -1.930374   -1.430833
     17          8           0       -1.699578    2.351594   -2.073328
     18          8           0       -2.447657   -0.503661    2.269119
     19         14           0        0.993335   -3.145493    1.681506
     20         14           0        3.679787   -1.780937    1.813823
     21         14           0        2.456753    3.707631    1.870846
     22         14           0       -1.746528   -1.931459   -1.507057
     23         14           0        4.570783    1.245175   -1.485913
     24         14           0       -2.775823    1.022987    1.807697
     25         14           0        1.190293   -2.972944   -0.948050
     26          8           0        6.042623    1.578917    2.720810
     27          1           0        6.206471    2.425325    3.155194
     28          8           0        4.050345   -3.001126    2.877744
     29          1           0        4.970625   -3.254013    2.979981
     30          8           0        3.034303    5.066852    2.627642
     31          1           0        2.610727    5.889432    2.373293
     32          8           0        1.529715   -4.300581    2.716384
     33          1           0        2.453927   -4.172563    2.976112
     34          8           0       -4.126845    1.556705    2.608518
     35          1           0       -4.947218    1.120435    2.368532
     36          8           0       -3.248953   -3.111998    2.533143
     37          1           0       -3.130021   -4.050397    2.724038
     38          8           0        0.410604   -4.223496   -1.670210
     39          1           0       -0.550615   -4.106040   -1.688316
     40          8           0       -2.046715   -3.165874   -2.577015
     41          1           0       -2.953244   -3.460046   -2.691235
     42          8           0       -4.259956    1.441932   -2.376867
     43          1           0       -4.263512    2.184167   -2.994642
     44          8           0        2.761299    5.095789   -1.980025
     45          1           0        3.673012    5.411031   -1.976273
     46          8           0        5.913370    1.808391   -2.281668
     47          1           0        6.742376    1.397025   -2.027825
     48          8           0        4.965937   -2.864880   -1.788493
     49          1           0        4.877724   -3.796100   -2.025639
     50          8           0       -0.903292    3.813492    0.036494
     51          8           0        0.505404    2.552421   -0.768053
     52          8           0        0.921378    3.432912    2.330202
     53         14           0       -0.657602    3.658526   -1.262711
     54          8           0       -1.537739    4.883695    2.423469
     55          1           0       -1.777706    5.584001    1.803113
     56          8           0       -1.416687    5.011382   -1.852429
     57          1           0       -0.955973    5.839429   -1.701334
     58         13           0       -2.007739   -2.027111    1.609760
     59         13           0       -2.646405    1.056100   -1.455453
     60         13           0       -0.668580    3.356069    1.675069
     61         13           0        2.141847    3.538640   -1.069618
     62         13           0        4.429106    1.249698    1.774536
     63         13           0        3.666399   -1.865093   -0.848214
     64          1           0       -3.822483   -2.717331    3.202096
     65          1           0       -4.868762    0.763399   -2.693554
     66          1           0       -1.322289    5.277306    3.277488
     67          1           0        2.334108    5.371748   -2.800331
     68          1           0        6.420513    0.870996    3.258019
     69          1           0        5.531471   -2.421409   -2.433102
 ---------------------------------------------------------------------
 Rotational constants (GHZ):      0.0481311      0.0462221      0.0332569
 Standard basis: 6-311G(d,p) (5D, 7F)
  1114 basis functions,  1924 primitive gaussians,  1163 cartesian basis functions
   245 alpha electrons      245 beta electrons
       nuclear repulsion energy     12887.8430933331 Hartrees.
 NAtoms=   69 NActive=   69 NUniq=   69 SFac= 1.00D+00 NAtFMM=   60 NAOKFM=T Big=T
 Integral buffers will be    131072 words long.
 Raffenetti 2 integral format.
 Two-electron integral symmetry is turned off.
 ------------------------------------------------------------------------------
 Polarizable Continuum Model (PCM)
 =================================
 Model                : C-PCM.
 Atomic radii         : UFF (Universal Force Field).
 Polarization charges : Total charges.
 Charge compensation  : None.
 Solution method      : On-the-fly selection.
 Cavity type          : Scaled VdW (van der Waals Surface) (Alpha=1.100).
 Cavity algorithm     : GePol (No added spheres)
                        Default sphere list used, NSphG=   69.
                        Lebedev-Laikov grids with approx.  5.0 points / Ang**2.
                        Smoothing algorithm: Karplus/York (Gamma=1.0000).
                        Polarization charges: spherical gaussians, with
                                              point-specific exponents (IZeta= 3).
                        Self-potential: point-specific (ISelfS= 7).
                        Self-field    : sphere-specific E.n sum rule (ISelfD= 2).
 1st derivatives      : Analytical E(r).r(x)/FMM algorithm (CHGder, D1EAlg=3).
                        Cavity 1st derivative terms included.
 Solvent              : Water, Eps=  78.355300 Eps(inf)=   1.777849
 ------------------------------------------------------------------------------
 One-electron integrals computed using PRISM.
 NBasis=  1114 RedAO= T EigKep=  2.36D-03  NBF=  1114
 NBsUse=  1114 1.00D-06 EigRej= -1.00D+00 NBFU=  1114
 ExpMin= 4.14D-02 ExpMax= 6.94D+04 ExpMxC= 2.33D+03 IAcc=2 IRadAn=         4 AccDes= 0.00D+00
 Harris functional with IExCor= 1009 and IRadAn=       4 diagonalized for initial guess.
 HarFok:  IExCor= 1009 AccDes= 0.00D+00 IRadAn=         4 IDoV= 1 UseB2=F ITyADJ=14
 ICtDFT=  3500011 ScaDFX=  1.000000  1.000000  1.000000  1.000000
 FoFCou: FMM=F IPFlag=           0 FMFlag=      100000 FMFlg1=        2001
         NFxFlg=           0 DoJE=T BraDBF=F KetDBF=T FulRan=T
         wScrn=  0.000000 ICntrl=     500 IOpCl=  0 I1Cent=   200000004 NGrid=           0
         NMat0=    1 NMatS0=      1 NMatT0=    0 NMatD0=    1 NMtDS0=    0 NMtDT0=    0
 Symmetry not used in FoFCou.
 Requested convergence on RMS density matrix=1.00D-08 within 128 cycles.
 Requested convergence on MAX density matrix=1.00D-06.
 Requested convergence on             energy=1.00D-06.
 No special actions if energy rises.
 Inv3:  Mode=1 IEnd=   104359212.
 Iteration    1 A*A^-1 deviation from unit magnitude is 1.38D-14 for   5224.
 Iteration    1 A*A^-1 deviation from orthogonality  is 7.11D-15 for   5774   4188.
 Iteration    1 A^-1*A deviation from unit magnitude is 1.33D-14 for   5224.
 Iteration    1 A^-1*A deviation from orthogonality  is 7.72D-15 for   5354   5044.
 Error on total polarization charges =  0.01182
 SCF Done:  E(RM062X) =  -6417.64233714     A.U. after   13 cycles
            NFock= 13  Conv=0.40D-08     -V/T= 2.0014

 **********************************************************************

            Population analysis using the SCF density.

 **********************************************************************

 Alpha  occ. eigenvalues --  -67.07991 -67.07479 -67.06490 -67.04298 -67.03456
 Alpha  occ. eigenvalues --  -67.03286 -67.01922 -66.99828 -56.84405 -56.84313
 Alpha  occ. eigenvalues --  -56.83778 -56.83635 -56.81586 -56.79784 -19.71916
 Alpha  occ. eigenvalues --  -19.70997 -19.70716 -19.70499 -19.69930 -19.69687
 Alpha  occ. eigenvalues --  -19.64288 -19.63473 -19.63216 -19.62267 -19.61949
 Alpha  occ. eigenvalues --  -19.61606 -19.61143 -19.60684 -19.60556 -19.60398
 Alpha  occ. eigenvalues --  -19.60056 -19.59958 -19.58472 -19.58419 -19.58403
 Alpha  occ. eigenvalues --  -19.58299 -19.58249 -19.58020 -19.57957 -19.57845
 Alpha  occ. eigenvalues --  -19.57636 -19.57142 -19.56807 -19.56730 -19.55998
 Alpha  occ. eigenvalues --  -19.54689 -19.54597 -19.54344 -19.52927  -5.62093
 Alpha  occ. eigenvalues --   -5.61700  -5.61539  -5.58284  -5.57491  -5.57369
 Alpha  occ. eigenvalues --   -5.57252  -5.53894  -4.38195  -4.37292  -4.36767
 Alpha  occ. eigenvalues --   -4.36629  -4.35384  -4.34613  -3.93446  -3.93432
 Alpha  occ. eigenvalues --   -3.93308  -3.93306  -3.92893  -3.92866  -3.92847
 Alpha  occ. eigenvalues --   -3.92782  -3.92565  -3.89644  -3.89594  -3.89572
 Alpha  occ. eigenvalues --   -3.89087  -3.88835  -3.88811  -3.88762  -3.88586
 Alpha  occ. eigenvalues --   -3.88579  -3.88554  -3.88431  -3.88166  -3.85275
 Alpha  occ. eigenvalues --   -3.85211  -3.85117  -2.89176  -2.88474  -2.88332
 Alpha  occ. eigenvalues --   -2.87960  -2.87782  -2.87753  -2.87438  -2.87284
 Alpha  occ. eigenvalues --   -2.87258  -2.87226  -2.87132  -2.87084  -2.86397
 Alpha  occ. eigenvalues --   -2.85578  -2.85451  -2.85287  -2.85117  -2.85034
 Alpha  occ. eigenvalues --   -1.24011  -1.23382  -1.22542  -1.22304  -1.22036
 Alpha  occ. eigenvalues --   -1.21651  -1.21538  -1.17199  -1.16003  -1.14257
 Alpha  occ. eigenvalues --   -1.13105  -1.13060  -1.12934  -1.11851  -1.11679
 Alpha  occ. eigenvalues --   -1.11077  -1.10230  -1.10101  -1.09983  -1.09034
 Alpha  occ. eigenvalues --   -1.08581  -1.08261  -1.07740  -1.07345  -1.06917
 Alpha  occ. eigenvalues --   -1.05780  -1.05547  -1.05132  -1.04951  -1.04440
 Alpha  occ. eigenvalues --   -1.04089  -1.02776  -1.00915  -0.98960  -0.98597
 Alpha  occ. eigenvalues --   -0.71476  -0.70973  -0.70141  -0.69818  -0.69692
 Alpha  occ. eigenvalues --   -0.69106  -0.69059  -0.67764  -0.65819  -0.65026
 Alpha  occ. eigenvalues --   -0.64571  -0.64067  -0.63269  -0.62939  -0.62209
 Alpha  occ. eigenvalues --   -0.62010  -0.61613  -0.61296  -0.61250  -0.60633
 Alpha  occ. eigenvalues --   -0.59462  -0.58915  -0.57676  -0.57202  -0.57012
 Alpha  occ. eigenvalues --   -0.56341  -0.56296  -0.55883  -0.55405  -0.55252
 Alpha  occ. eigenvalues --   -0.54647  -0.54375  -0.53777  -0.53525  -0.52751
 Alpha  occ. eigenvalues --   -0.52409  -0.52145  -0.51862  -0.51301  -0.50928
 Alpha  occ. eigenvalues --   -0.50710  -0.50563  -0.49791  -0.49642  -0.49464
 Alpha  occ. eigenvalues --   -0.49376  -0.49093  -0.48896  -0.48693  -0.48495
 Alpha  occ. eigenvalues --   -0.47924  -0.46977  -0.46848  -0.46665  -0.46300
 Alpha  occ. eigenvalues --   -0.46147  -0.45831  -0.45176  -0.45100  -0.44868
 Alpha  occ. eigenvalues --   -0.44630  -0.44415  -0.44222  -0.44059  -0.43903
 Alpha  occ. eigenvalues --   -0.43515  -0.43069  -0.42750  -0.42393  -0.42365
 Alpha  occ. eigenvalues --   -0.42199  -0.41983  -0.41882  -0.41652  -0.41595
 Alpha  occ. eigenvalues --   -0.41391  -0.41267  -0.40796  -0.40601  -0.40439
 Alpha  occ. eigenvalues --   -0.40408  -0.40157  -0.39991  -0.39661  -0.39552
 Alpha  occ. eigenvalues --   -0.39183  -0.38613  -0.38495  -0.38204  -0.38035
 Alpha  occ. eigenvalues --   -0.37893  -0.37721  -0.37134  -0.36842  -0.36480
 Alpha  occ. eigenvalues --   -0.35988  -0.35762  -0.34900  -0.34583  -0.34138
 Alpha  occ. eigenvalues --   -0.33509  -0.33222  -0.32754  -0.31515  -0.31060
 Alpha virt. eigenvalues --   -0.05035  -0.04191   0.01691   0.01898   0.02306
 Alpha virt. eigenvalues --    0.02608   0.03402   0.03980   0.04342   0.05272
 Alpha virt. eigenvalues --    0.05786   0.06057   0.06316   0.06459   0.07241
 Alpha virt. eigenvalues --    0.07404   0.08240   0.08294   0.08919   0.09395
 Alpha virt. eigenvalues --    0.09598   0.09765   0.10086   0.10834   0.10979
 Alpha virt. eigenvalues --    0.11350   0.11824   0.12126   0.12483   0.13203
 Alpha virt. eigenvalues --    0.13373   0.13891   0.14068   0.14242   0.14398
 Alpha virt. eigenvalues --    0.14743   0.15048   0.15643   0.15686   0.15964
 Alpha virt. eigenvalues --    0.16012   0.16071   0.16598   0.17147   0.17238
 Alpha virt. eigenvalues --    0.17354   0.17771   0.18130   0.18399   0.18974
 Alpha virt. eigenvalues --    0.19198   0.19587   0.20033   0.20057   0.20138
 Alpha virt. eigenvalues --    0.20769   0.21128   0.21577   0.21713   0.21905
 Alpha virt. eigenvalues --    0.22032   0.22253   0.22692   0.22765   0.22937
 Alpha virt. eigenvalues --    0.23350   0.23556   0.23673   0.23900   0.24119
 Alpha virt. eigenvalues --    0.24420   0.24667   0.24973   0.25196   0.25546
 Alpha virt. eigenvalues --    0.25609   0.26584   0.26667   0.27128   0.27428
 Alpha virt. eigenvalues --    0.27716   0.27971   0.28207   0.28711   0.28863
 Alpha virt. eigenvalues --    0.29092   0.29318   0.29662   0.29907   0.30132
 Alpha virt. eigenvalues --    0.30396   0.30605   0.30740   0.31690   0.31720
 Alpha virt. eigenvalues --    0.32204   0.32420   0.32843   0.33255   0.33919
 Alpha virt. eigenvalues --    0.34253   0.34704   0.35170   0.35352   0.35797
 Alpha virt. eigenvalues --    0.36130   0.36246   0.36462   0.36836   0.37201
 Alpha virt. eigenvalues --    0.37754   0.37787   0.38180   0.38521   0.38934
 Alpha virt. eigenvalues --    0.39109   0.39578   0.40184   0.40538   0.41164
 Alpha virt. eigenvalues --    0.41418   0.41677   0.42302   0.42603   0.43124
 Alpha virt. eigenvalues --    0.43452   0.43795   0.44066   0.44441   0.45491
 Alpha virt. eigenvalues --    0.45903   0.45934   0.46615   0.47014   0.47416
 Alpha virt. eigenvalues --    0.47594   0.47944   0.48261   0.48540   0.49412
 Alpha virt. eigenvalues --    0.49723   0.50139   0.50711   0.51430   0.52195
 Alpha virt. eigenvalues --    0.53373   0.53629   0.54033   0.54843   0.55031
 Alpha virt. eigenvalues --    0.56204   0.57457   0.58608   0.59000   0.60030
 Alpha virt. eigenvalues --    0.61150   0.61463   0.61715   0.61883   0.62487
 Alpha virt. eigenvalues --    0.62945   0.63485   0.63651   0.64206   0.65099
 Alpha virt. eigenvalues --    0.65666   0.65907   0.66399   0.66452   0.66966
 Alpha virt. eigenvalues --    0.67517   0.67641   0.68082   0.68786   0.69285
 Alpha virt. eigenvalues --    0.69820   0.70333   0.70931   0.70986   0.71304
 Alpha virt. eigenvalues --    0.72004   0.72628   0.72993   0.73854   0.74052
 Alpha virt. eigenvalues --    0.74526   0.74918   0.75575   0.76885   0.77165
 Alpha virt. eigenvalues --    0.77871   0.78526   0.78664   0.79141   0.79739
 Alpha virt. eigenvalues --    0.79925   0.80858   0.81059   0.81366   0.82112
 Alpha virt. eigenvalues --    0.82394   0.82801   0.82830   0.84212   0.84463
 Alpha virt. eigenvalues --    0.84991   0.85160   0.85392   0.86169   0.86678
 Alpha virt. eigenvalues --    0.87263   0.87364   0.88000   0.88051   0.88467
 Alpha virt. eigenvalues --    0.88785   0.89232   0.89509   0.90032   0.90064
 Alpha virt. eigenvalues --    0.90762   0.91170   0.91404   0.91488   0.92095
 Alpha virt. eigenvalues --    0.92288   0.92504   0.92714   0.93250   0.93309
 Alpha virt. eigenvalues --    0.93493   0.94343   0.94585   0.94639   0.94834
 Alpha virt. eigenvalues --    0.95201   0.95653   0.96371   0.96693   0.96895
 Alpha virt. eigenvalues --    0.97193   0.97521   0.97750   0.98004   0.98377
 Alpha virt. eigenvalues --    0.98669   0.99307   0.99450   0.99708   0.99918
 Alpha virt. eigenvalues --    1.00334   1.00658   1.00930   1.01518   1.01680
 Alpha virt. eigenvalues --    1.02210   1.02910   1.03245   1.03322   1.03819
 Alpha virt. eigenvalues --    1.04081   1.04293   1.04864   1.04961   1.05255
 Alpha virt. eigenvalues --    1.05437   1.05669   1.05828   1.06290   1.06469
 Alpha virt. eigenvalues --    1.06772   1.07270   1.07336   1.07865   1.08023
 Alpha virt. eigenvalues --    1.08357   1.08604   1.08794   1.09235   1.09706
 Alpha virt. eigenvalues --    1.10070   1.10416   1.10609   1.11053   1.11334
 Alpha virt. eigenvalues --    1.11502   1.11607   1.11896   1.12189   1.12414
 Alpha virt. eigenvalues --    1.13377   1.13563   1.13622   1.13919   1.14222
 Alpha virt. eigenvalues --    1.14504   1.14958   1.14991   1.15643   1.15706
 Alpha virt. eigenvalues --    1.15992   1.16140   1.16517   1.16851   1.16986
 Alpha virt. eigenvalues --    1.17758   1.18003   1.18411   1.18704   1.18790
 Alpha virt. eigenvalues --    1.19100   1.19423   1.19632   1.20251   1.20534
 Alpha virt. eigenvalues --    1.20689   1.20833   1.21213   1.21378   1.21689
 Alpha virt. eigenvalues --    1.22169   1.22614   1.22764   1.23669   1.24107
 Alpha virt. eigenvalues --    1.24401   1.24900   1.25353   1.25871   1.26288
 Alpha virt. eigenvalues --    1.26749   1.27252   1.27535   1.27928   1.28275
 Alpha virt. eigenvalues --    1.28529   1.28551   1.28810   1.29168   1.29708
 Alpha virt. eigenvalues --    1.30322   1.30468   1.30528   1.31075   1.31386
 Alpha virt. eigenvalues --    1.31832   1.32423   1.32753   1.32856   1.33639
 Alpha virt. eigenvalues --    1.33792   1.34658   1.34868   1.35350   1.35962
 Alpha virt. eigenvalues --    1.36698   1.37214   1.37756   1.37963   1.38280
 Alpha virt. eigenvalues --    1.39043   1.39792   1.40008   1.40364   1.41011
 Alpha virt. eigenvalues --    1.41063   1.41544   1.41789   1.42212   1.42850
 Alpha virt. eigenvalues --    1.43262   1.43859   1.44126   1.44440   1.44967
 Alpha virt. eigenvalues --    1.46029   1.46200   1.46481   1.47355   1.47792
 Alpha virt. eigenvalues --    1.48212   1.49000   1.49420   1.49919   1.50379
 Alpha virt. eigenvalues --    1.50916   1.51406   1.51695   1.52579   1.53288
 Alpha virt. eigenvalues --    1.53496   1.54726   1.55872   1.56579   1.57135
 Alpha virt. eigenvalues --    1.57775   1.58283   1.59839   1.61029   1.61947
 Alpha virt. eigenvalues --    1.61966   1.62419   1.63845   1.65253   1.65745
 Alpha virt. eigenvalues --    1.66232   1.66811   1.67907   1.68138   1.68729
 Alpha virt. eigenvalues --    1.68821   1.69080   1.69435   1.69477   1.70109
 Alpha virt. eigenvalues --    1.70477   1.70597   1.70955   1.71518   1.72161
 Alpha virt. eigenvalues --    1.72636   1.73312   1.73529   1.74851   1.75490
 Alpha virt. eigenvalues --    1.75750   1.76997   1.77460   1.78749   1.78874
 Alpha virt. eigenvalues --    1.79141   1.80078   1.80659   1.81215   1.81886
 Alpha virt. eigenvalues --    1.84093   1.86094   1.86438   1.86957   1.87035
 Alpha virt. eigenvalues --    1.87726   1.88144   1.88543   1.91319   1.98540
 Alpha virt. eigenvalues --    1.99267   2.00247   2.00592   2.01274   2.01795
 Alpha virt. eigenvalues --    2.05311   2.05997   2.06060   2.06705   2.07234
 Alpha virt. eigenvalues --    2.07782   2.10025   2.11535   2.11862   2.12169
 Alpha virt. eigenvalues --    2.12617   2.12840   2.19069   2.20905   2.36731
 Alpha virt. eigenvalues --    2.37806   2.38676   2.39043   2.39574   2.41989
 Alpha virt. eigenvalues --    2.46849   2.49826   2.50093   2.50660   2.52112
 Alpha virt. eigenvalues --    2.52517   2.52576   2.55239   2.56192   2.56386
 Alpha virt. eigenvalues --    2.57060   2.57782   2.58915   2.59389   2.84056
 Alpha virt. eigenvalues --    2.86399   2.87743   2.88349   2.88594   2.88673
 Alpha virt. eigenvalues --    2.89152   2.89227   2.89681   2.89918   2.90110
 Alpha virt. eigenvalues --    2.90607   2.90925   2.91147   2.91281   2.91698
 Alpha virt. eigenvalues --    2.91941   2.92293   2.92697   2.93001   2.93169
 Alpha virt. eigenvalues --    2.93642   2.93872   2.94148   2.94297   2.94587
 Alpha virt. eigenvalues --    2.94785   2.94892   2.95411   2.95681   2.95842
 Alpha virt. eigenvalues --    2.96189   2.96565   2.97126   2.97245   2.97914
 Alpha virt. eigenvalues --    2.98112   2.98906   2.99448   2.99525   3.00065
 Alpha virt. eigenvalues --    3.00437   3.00514   3.00971   3.01101   3.01501
 Alpha virt. eigenvalues --    3.01842   3.02139   3.02524   3.03081   3.03701
 Alpha virt. eigenvalues --    3.04159   3.04265   3.04552   3.05124   3.05575
 Alpha virt. eigenvalues --    3.05777   3.06199   3.06853   3.06981   3.07393
 Alpha virt. eigenvalues --    3.07904   3.08170   3.08525   3.08650   3.08846
 Alpha virt. eigenvalues --    3.09224   3.09543   3.10038   3.10319   3.10882
 Alpha virt. eigenvalues --    3.11499   3.11629   3.11934   3.12335   3.12664
 Alpha virt. eigenvalues --    3.12816   3.13784   3.13921   3.14037   3.14237
 Alpha virt. eigenvalues --    3.14317   3.14548   3.14987   3.15106   3.15403
 Alpha virt. eigenvalues --    3.15625   3.15674   3.16032   3.16205   3.16737
 Alpha virt. eigenvalues --    3.17272   3.17463   3.18405   3.18514   3.19567
 Alpha virt. eigenvalues --    3.19771   3.20158   3.20446   3.20536   3.20602
 Alpha virt. eigenvalues --    3.21371   3.21792   3.22097   3.22277   3.22637
 Alpha virt. eigenvalues --    3.23090   3.23853   3.24253   3.24580   3.25560
 Alpha virt. eigenvalues --    3.25869   3.26550   3.26880   3.27909   3.28551
 Alpha virt. eigenvalues --    3.28917   3.29645   3.29723   3.30357   3.31005
 Alpha virt. eigenvalues --    3.31311   3.32824   3.33128   3.33991   3.34762
 Alpha virt. eigenvalues --    3.36051   3.37165   3.37958   3.38799   3.40951
 Alpha virt. eigenvalues --    3.42198   3.42513   3.43887   3.44374   3.46266
 Alpha virt. eigenvalues --    3.46647   3.47384   3.48154   3.49088   3.50400
 Alpha virt. eigenvalues --    3.51082   3.51676   3.52347   3.53011   3.54174
 Alpha virt. eigenvalues --    3.54543   3.55201   3.55390   3.56458   3.56840
 Alpha virt. eigenvalues --    3.59182   3.60170   3.61376   3.61811   3.62422
 Alpha virt. eigenvalues --    3.62663   3.62899   3.63722   3.67257   3.75047
 Alpha virt. eigenvalues --    3.81162   3.81688   3.82004   3.82433   3.82559
 Alpha virt. eigenvalues --    3.82642   3.83088   3.83576   3.83900   3.83949
 Alpha virt. eigenvalues --    3.84660   3.84864   3.88344   3.89953   4.60523
 Alpha virt. eigenvalues --    4.66659   4.71926   4.73072   4.73906   4.75975
 Alpha virt. eigenvalues --    4.85127   4.85467   4.85980   4.86269   4.88618
 Alpha virt. eigenvalues --    4.91133   4.94221   4.95190   4.95396   4.96678
 Alpha virt. eigenvalues --    4.96966   4.97421   4.98138   4.98377   4.99009
 Alpha virt. eigenvalues --    4.99677   4.99943   5.00634   5.01131   5.01923
 Alpha virt. eigenvalues --    5.02470   5.03023   5.03341   5.03868   5.04238
 Alpha virt. eigenvalues --    5.04512   5.05278   5.05739   5.06033   5.06940
 Alpha virt. eigenvalues --    5.07448   5.07614   5.07900   5.08752   5.09230
 Alpha virt. eigenvalues --    5.09589   5.10125   5.10585   5.11049   5.11382
 Alpha virt. eigenvalues --    5.12337   5.12434   5.12785   5.13299   5.14129
 Alpha virt. eigenvalues --    5.14827   5.15197   5.15832   5.15992   5.16515
 Alpha virt. eigenvalues --    5.17006   5.17311   5.18391   5.18945   5.19317
 Alpha virt. eigenvalues --    5.19984   5.20060   5.20810   5.21391   5.21692
 Alpha virt. eigenvalues --    5.22619   5.23350   5.24335   5.25398   5.26354
 Alpha virt. eigenvalues --    5.27142   5.28858   5.30383   5.30868   5.31115
 Alpha virt. eigenvalues --    5.32518   5.33090   5.33977   5.34578   5.34826
 Alpha virt. eigenvalues --    5.35086   5.35460   5.36813   5.37027   5.37454
 Alpha virt. eigenvalues --    5.37947   5.38203   5.38381   5.39059   5.39628
 Alpha virt. eigenvalues --    5.40125   5.41703   5.42989   5.47080   5.48688
 Alpha virt. eigenvalues --    5.55464   5.57226   5.58405   5.58542   5.59686
 Alpha virt. eigenvalues --    5.60103   5.60635   5.61817   5.64306   5.65562
 Alpha virt. eigenvalues --    5.65626   5.66158   5.66304   5.66985   5.67493
 Alpha virt. eigenvalues --    5.93400   5.95718   5.95766   5.97120   6.00339
 Alpha virt. eigenvalues --    6.01295   6.02877   6.08430   8.25139   8.28910
 Alpha virt. eigenvalues --    8.30445   8.31429   8.32218   8.34276   8.36019
 Alpha virt. eigenvalues --    8.42713   8.47197   8.49953   8.50934   8.51287
 Alpha virt. eigenvalues --    8.52247   8.53404   8.54628   8.55917   8.58039
 Alpha virt. eigenvalues --    8.69265  11.54234  11.57027  11.60713  11.61849
 Alpha virt. eigenvalues --   11.62787  11.63554  11.64648  11.66257  11.66788
 Alpha virt. eigenvalues --   11.67106  11.67879  11.68260  11.68941  11.69603
 Alpha virt. eigenvalues --   11.70471  11.71422  11.71764  11.72642  11.73661
 Alpha virt. eigenvalues --   11.75550  11.75977  11.78311  11.81666  11.87639
 Alpha virt. eigenvalues --   49.90842  49.91951  49.92529  49.92865  49.93010
 Alpha virt. eigenvalues --   49.93282  49.94224  49.95373  49.96209  49.96731
 Alpha virt. eigenvalues --   49.96976  49.97652  49.97723  49.98069  49.98734
 Alpha virt. eigenvalues --   49.98848  49.99213  49.99478  49.99778  49.99973
 Alpha virt. eigenvalues --   50.00325  50.00938  50.01535  50.02133  50.02429
 Alpha virt. eigenvalues --   50.03310  50.03751  50.04761  50.05054  50.05430
 Alpha virt. eigenvalues --   50.06389  50.06586  50.07812  50.09106  50.12538
 Alpha virt. eigenvalues --  120.75355 120.83957 120.85802 120.86165 120.89852
 Alpha virt. eigenvalues --  120.92973 141.44262 141.48356 141.49152 141.50124
 Alpha virt. eigenvalues --  141.52634 141.53837 141.54598 141.57464
          Condensed to atoms (all electrons):
 Mulliken charges:
               1
     1  O   -0.567577
     2  O   -0.643474
     3  O   -0.696880
     4  O   -0.841425
     5  O   -0.857201
     6  O   -0.853385
     7  O   -0.822071
     8  O   -0.829501
     9  O   -0.624695
    10  O   -0.846301
    11  O   -0.840546
    12  O   -0.907173
    13  O   -0.830306
    14  O   -0.900471
    15  O   -0.848464
    16  O   -0.848731
    17  O   -0.911668
    18  O   -0.846618
    19  Si   1.450731
    20  Si   1.483626
    21  Si   1.454920
    22  Si   1.415446
    23  Si   1.353810
    24  Si   1.436709
    25  Si   1.251247
    26  O   -0.555809
    27  H    0.391383
    28  O   -0.696745
    29  H    0.347385
    30  O   -0.665761
    31  H    0.313537
    32  O   -0.654587
    33  H    0.333373
    34  O   -0.672382
    35  H    0.313683
    36  O   -0.558546
    37  H    0.392810
    38  O   -0.672136
    39  H    0.315598
    40  O   -0.692009
    41  H    0.327644
    42  O   -0.554576
    43  H    0.385919
    44  O   -0.553528
    45  H    0.407935
    46  O   -0.684398
    47  H    0.303018
    48  O   -0.538982
    49  H    0.375791
    50  O   -0.639324
    51  O   -0.746885
    52  O   -0.843603
    53  Si   1.224117
    54  O   -0.549086
    55  H    0.379800
    56  O   -0.628826
    57  H    0.316676
    58  Al   1.288340
    59  Al   1.218355
    60  Al   1.272687
    61  Al   1.113003
    62  Al   1.269476
    63  Al   0.951897
    64  H    0.395117
    65  H    0.384020
    66  H    0.387108
    67  H    0.387784
    68  H    0.391494
    69  H    0.389228
 Sum of Mulliken charges =   0.00000
 Mulliken charges with hydrogens summed into heavy atoms:
               1
     1  O   -0.567577
     2  O   -0.643474
     3  O   -0.696880
     4  O   -0.841425
     5  O   -0.857201
     6  O   -0.853385
     7  O   -0.822071
     8  O   -0.829501
     9  O   -0.624695
    10  O   -0.846301
    11  O   -0.840546
    12  O   -0.907173
    13  O   -0.830306
    14  O   -0.900471
    15  O   -0.848464
    16  O   -0.848731
    17  O   -0.911668
    18  O   -0.846618
    19  Si   1.450731
    20  Si   1.483626
    21  Si   1.454920
    22  Si   1.415446
    23  Si   1.353810
    24  Si   1.436709
    25  Si   1.251247
    26  O    0.227068
    28  O   -0.349360
    30  O   -0.352224
    32  O   -0.321214
    34  O   -0.358699
    36  O    0.229381
    38  O   -0.356539
    40  O   -0.364365
    42  O    0.215363
    44  O    0.242191
    46  O   -0.381380
    48  O    0.226037
    50  O   -0.639324
    51  O   -0.746885
    52  O   -0.843603
    53  Si   1.224117
    54  O    0.217823
    56  O   -0.312150
    58  Al   1.288340
    59  Al   1.218355
    60  Al   1.272687
    61  Al   1.113003
    62  Al   1.269476
    63  Al   0.951897
 Electronic spatial extent (au):  <R**2>=          36185.0922
 Charge=              0.0000 electrons
 Dipole moment (field-independent basis, Debye):
    X=              1.3363    Y=              9.6940    Z=              4.7931  Tot=             10.8965
 Quadrupole moment (field-independent basis, Debye-Ang):
   XX=           -192.0920   YY=           -192.5782   ZZ=           -339.1999
   XY=              0.4769   XZ=             25.7829   YZ=            -21.3319
 Traceless Quadrupole moment (field-independent basis, Debye-Ang):
   XX=             49.1980   YY=             48.7118   ZZ=            -97.9099
   XY=              0.4769   XZ=             25.7829   YZ=            -21.3319
 Octapole moment (field-independent basis, Debye-Ang**2):
  XXX=           -556.5316  YYY=            474.4433  ZZZ=           -228.8625  XYY=           -155.2552
  XXY=           -372.3532  XXZ=             84.3876  XZZ=           -317.8566  YZZ=            -66.1061
  YYZ=           -105.8587  XYZ=            102.4348
 Hexadecapole moment (field-independent basis, Debye-Ang**3):
 XXXX=         -12261.3911 YYYY=         -11092.0809 ZZZZ=          -7122.8322 XXXY=           -801.8872
 XXXZ=           1697.7495 YYYX=            173.1741 YYYZ=           -372.6343 ZZZX=             20.9114
 ZZZY=           -237.3456 XXYY=          -4072.3190 XXZZ=          -2642.5076 YYZZ=          -3016.8773
 XXYZ=             83.7281 YYXZ=          -1268.4958 ZZXY=            -23.9961
 N-N= 1.288784309333D+04 E-N=-4.107126781910D+04  KE= 6.408903953927D+03
 D1PCM: C-PCM CHGder 1st derivatives, ID1Alg=3 FixD1E=F DoIter=F DoCFld=F I1PDM=0.
 Calling FoFJK, ICntrl=      2127 FMM=T ISym2X=0 I1Cent= 0 IOpClX= 0 NMat=1 NMatS=1 NMatT=0.
 -------------------------------------------------------------------
 Center     Atomic                   Forces (Hartrees/Bohr)
 Number     Number              X              Y              Z
 -------------------------------------------------------------------
      1        8           0.018630542   -0.156614166    0.403017976
      2        8           0.151633058   -0.058482874    0.346691713
      3        8           0.079778661    0.080130851    0.262361412
      4        8          -0.003396838   -0.002624519    0.007013705
      5        8           0.002639270    0.001602561    0.016651444
      6        8          -0.002229600   -0.001119117    0.006836311
      7        8           0.010347685   -0.004222089   -0.007311544
      8        8          -0.002444587   -0.007826308   -0.005185179
      9        8          -0.116268105   -0.092969675   -0.002726409
     10        8           0.001335605    0.002140921   -0.000583738
     11        8          -0.004789713   -0.002345389   -0.001506285
     12        8          -0.036843619    0.046538967    0.018933559
     13        8           0.002271940   -0.004173408   -0.007586252
     14        8           0.007462899   -0.025132818    0.027142713
     15        8          -0.002666387    0.002685692   -0.002937675
     16        8          -0.016280059    0.009446128    0.022821422
     17        8           0.025347081    0.051748119    0.013504429
     18        8           0.001159009   -0.001290941    0.001256433
     19       14          -0.008018668   -0.002969081    0.056959666
     20       14           0.008320579    0.006445448    0.043932580
     21       14           0.001491116   -0.000240115    0.019596857
     22       14           0.021009518    0.004961723   -0.002756918
     23       14          -0.018476204   -0.017272493   -0.013453778
     24       14          -0.001577823   -0.000597141   -0.004956083
     25       14          -0.059246404    0.277039312   -0.364227553
     26        8          -0.000563776   -0.000488898    0.000384151
     27        1           0.000057737    0.000031747    0.000048812
     28        8          -0.002576399    0.002444363   -0.005084335
     29        1           0.000661456   -0.000520568    0.000383534
     30        8          -0.000645037   -0.001533253   -0.002287447
     31        1           0.000021750    0.000573527    0.000308906
     32        8          -0.000667668    0.003168298   -0.004850376
     33        1           0.000618429   -0.000903742    0.001012311
     34        8          -0.000068325    0.000168276    0.000854175
     35        1           0.000147523    0.000000245   -0.000056086
     36        8           0.000793725   -0.000032500    0.000078894
     37        1          -0.000135643   -0.000126036    0.000053872
     38        8           0.004854028   -0.053272296   -0.107280099
     39        1           0.010588238    0.000979753   -0.014373985
     40        8          -0.005272832   -0.001751484    0.000914455
     41        1          -0.000363114    0.000563073    0.000538167
     42        8          -0.004280102   -0.001248103   -0.000930345
     43        1           0.001355707   -0.000434378    0.000739239
     44        8          -0.022994143   -0.004357845   -0.010811399
     45        1           0.002191557   -0.002420237    0.002631082
     46        8           0.009320690    0.005615548   -0.001306400
     47        1          -0.000978336   -0.000287140   -0.000097241
     48        8          -0.004479510   -0.017357990   -0.016457575
     49        1           0.004273359   -0.000474119   -0.001589070
     50        8          -0.137709231    0.107607746    0.485892801
     51        8           0.109469223    0.023989753   -0.094507846
     52        8           0.002790871    0.002620249   -0.003729014
     53       14          -0.021777392   -0.158424148   -0.393751849
     54        8           0.000623640   -0.000278434   -0.000194698
     55        1          -0.000276359    0.000203579    0.000064463
     56        8           0.028375978    0.005671619   -0.041857367
     57        1          -0.001892893    0.004516975    0.000999253
     58       13          -0.006542386    0.002954416   -0.003850655
     59       13           0.012789748    0.011008395   -0.004607850
     60       13          -0.000231151   -0.004891239    0.005053788
     61       13          -0.035432877   -0.162300838   -0.252835129
     62       13           0.003957141    0.003845294   -0.006417834
     63       13          -0.006113692    0.120735625   -0.361813953
     64        1           0.000016555    0.000073332    0.000089275
     65        1           0.000044833    0.000472506    0.000008426
     66        1          -0.000066215    0.000056308    0.000234499
     67        1           0.004995405    0.005014374   -0.003607668
     68        1           0.000297124    0.000139630    0.000154219
     69        1          -0.004366593    0.003789030   -0.001634909
 -------------------------------------------------------------------
 Cartesian Forces:  Max     0.485892801 RMS     0.082046973

 GradGradGradGradGradGradGradGradGradGradGradGradGradGradGradGradGradGrad
 Berny optimization.
 FormGI is forming the generalized inverse of G from B-inverse, IUseBI=4.
 Internal  Forces:  Max     0.478626636 RMS     0.045438119
 Search for a local minimum.
 Step number   1 out of a maximum of  403
 All quantities printed in internal units (Hartrees-Bohrs-Radians)
 Mixed Optimization -- RFO/linear search
 Second derivative matrix not updated -- first step.
 ITU=  0
     Eigenvalues ---    0.01955   0.01996   0.02101   0.02121   0.02222
     Eigenvalues ---    0.02230   0.02519   0.02536   0.02711   0.02747
     Eigenvalues ---    0.02809   0.02915   0.03043   0.03301   0.03413
     Eigenvalues ---    0.03533   0.03536   0.03551   0.03553   0.03556
     Eigenvalues ---    0.03562   0.03571   0.03787   0.03795   0.03797
     Eigenvalues ---    0.04227   0.04268   0.04327   0.04527   0.04632
     Eigenvalues ---    0.04672   0.04835   0.04912   0.04975   0.05097
     Eigenvalues ---    0.05456   0.05583   0.05609   0.05721   0.06303
     Eigenvalues ---    0.06413   0.07102   0.07265   0.07915   0.08439
     Eigenvalues ---    0.09268   0.09308   0.09906   0.09970   0.10401
     Eigenvalues ---    0.10531   0.10782   0.10833   0.11447   0.11520
     Eigenvalues ---    0.11815   0.12035   0.12094   0.12645   0.12830
     Eigenvalues ---    0.13000   0.13179   0.13274   0.13354   0.13384
     Eigenvalues ---    0.13527   0.13758   0.13785   0.13899   0.14097
     Eigenvalues ---    0.14150   0.14342   0.14485   0.14596   0.14635
     Eigenvalues ---    0.14736   0.14934   0.15066   0.15215   0.15398
     Eigenvalues ---    0.15694   0.15899   0.16000   0.16000   0.16000
     Eigenvalues ---    0.16000   0.16000   0.16000   0.16000   0.16000
     Eigenvalues ---    0.16000   0.16000   0.16000   0.16000   0.16000
     Eigenvalues ---    0.16000   0.16000   0.16000   0.16000   0.16000
     Eigenvalues ---    0.16000   0.16000   0.16071   0.16550   0.16649
     Eigenvalues ---    0.17088   0.17304   0.17586   0.18015   0.18488
     Eigenvalues ---    0.18771   0.19051   0.19090   0.19213   0.19426
     Eigenvalues ---    0.19532   0.19632   0.19715   0.20008   0.20069
     Eigenvalues ---    0.20134   0.20167   0.20221   0.20504   0.20618
[...]
 0.00001034,-0.00030375,-0.00039646,0.00000550,-0.00001828,-0.00000651,
 0.00073907,0.01236719,-0.00261989,0.00321969,0.00007764,-0.00007000,-0
 .00001971,0.00003270,0.00004843,-0.00001011,-0.00000183,-0.00000113,0.
 00000138,-0.00000470,-0.00001323,0.00000246,0.00000575,-0.00000380,0.0
 0002065,-0.06724241,0.08663513,0.00000034,-0.00000483,-0.00000028,0.00
 000010,-0.00001808,0.00000315,0.00111341,-0.00000665,0.00051063,-0.000
 00054,-0.00002080,0.00000687,0.00008792,-0.00006649,0.00006558,-0.0000
 8985,-0.00007481,0.00008680,0.00000594,-0.00000739,0.00000234,0.000000
 06,-0.00004914,0.00001314,-0.00000754,-0.00001098,-0.00000428,-0.00009
 922,-0.00014336,0.00012595,-0.00001008,-0.00011599,-0.00000997,0.00068
 224,-0.00039418,0.00015523,-0.00000864,-0.00000492,0.,0.00001811,-0.00
 011054,-0.00001631,0.00011029,-0.00016703,0.00019387,0.00001755,-0.000
 00978,-0.00000045,-0.00090825,-0.00044632,-0.00015208,-0.00000455,-0.0
 0006042,0.00002100,-0.00000148,0.00000908,0.00000028,0.00001344,0.0000
 3627,-0.00001035,-0.00003983,0.00009412,-0.00097666,-0.00002669,0.0000
 6953,-0.00000816,-0.00024133,0.00022313,0.00000803,0.00011989,0.000119
 06,-0.00008097,-0.00000097,0.00000959,0.00000391,0.00002825,-0.0000089
 7,0.00001249,-0.00000909,-0.00000460,-0.00000372,-0.00000063,-0.000008
 82,0.00000615,-0.00000194,0.00000175,-0.00000013,0.00004724,0.00011526
 ,0.00017733,0.00000784,-0.00003406,-0.00002411,0.00000070,-0.00000380,
 0.00000148,0.00000070,0.00000175,-0.00000037,-0.00004348,-0.00000306,0
 .00002346,0.00000366,0.00000038,0.00000036,-0.00000319,-0.00000736,0.0
 0000236,-0.00000085,0.00000148,0.00000019,-0.00000024,-0.00000443,-0.0
 0000381,-0.00000130,0.00000143,0.00000108,0.00000186,-0.00001871,-0.00
 000847,0.00000201,0.00000210,0.00000209,-0.00008120,-0.00003368,-0.000
 02048,0.00002286,-0.00000691,0.00001447,-0.05361165,0.01723720,-0.0257
 5647,-0.00225752,-0.00002741,-0.00162132,0.00010678,-0.00002346,-0.000
 01420,0.00000233,0.00000175,-0.00000641,0.00000331,-0.00001162,-0.0000
 0460,0.00000013,-0.00000087,0.00000213,-0.00082705,0.00016122,0.000595
 50,-0.00143654,-0.00395406,0.00042857,0.00000339,-0.00000437,0.0002833
 4,0.00763073,0.00289439,-0.00070629,-0.00002989,0.00006088,0.00012136,
 0.00002726,-0.00003901,-0.00002006,-0.00130439,0.00209757,-0.00858902,
 -0.00047369,-0.00059041,-0.00081858,-0.00000352,0.00003489,-0.00000261
 ,0.00023935,0.00032334,0.00001782,0.00014450,0.00010100,-0.00079810,-0
 .01049932,0.00698190,-0.00376811,-0.00009463,0.00012727,-0.00005771,0.
 00000696,0.00005603,-0.00000293,0.00000197,0.00000044,-0.00000040,0.00
 000268,0.00001192,-0.00000270,-0.00000746,0.00000427,-0.00002170,0.061
 67695,-0.02429079,0.04061936,0.00007518,0.00009196,0.00012532,-0.00010
 090,0.00057611,0.00079463,0.00003187,-0.00001700,-0.00002606,0.0000190
 7,-0.00000204,0.00001318,0.00011034,-0.00029363,0.00089478,0.00000182,
 -0.00000371,0.00000174,0.00016730,0.00001145,-0.00001637,0.00377272,0.
 00355586,0.00244825,0.00009919,0.00003254,0.00010396,-0.00000517,-0.00
 000808,-0.00000016,0.00000821,-0.00000988,0.00000559,0.00010516,-0.000
 09900,0.00013219,0.00092724,0.00067754,0.00016952,-0.00000739,0.000018
 16,0.00018717,-0.00137354,-0.00014885,-0.00025837,0.00004657,-0.000022
 27,0.00001978,0.00000279,-0.00000149,0.00000047,0.00001221,-0.00001811
 ,-0.00000167,-0.00038395,-0.00035347,-0.00003264,-0.00074057,-0.003115
 53,-0.00090217,-0.00017319,-0.00016000,0.00010694,-0.00003684,0.000005
 75,-0.00001985,0.00002535,0.00004379,-0.00062458,-0.00000542,0.0000187
 8,-0.00000347,-0.00010830,-0.00001781,-0.00011108,-0.09165245,0.137925
 03,-0.12463336,0.00318035,-0.00563838,0.00455334,-0.00000247,0.0006609
 1,-0.00017803,0.00006551,-0.00006850,0.00002960,0.00001558,-0.00001779
 ,0.00000144,0.00000090,-0.00000193,-0.00000754,0.00006591,0.00013572,-
 0.00003948,-0.00004700,-0.00006880,0.00001867,0.00000277,-0.00000372,-
 0.00000091,-0.00000070,-0.00000039,0.00000029,0.00001464,0.00000177,-0
 .00000491,-0.00000271,-0.00000341,0.00000006,0.00002354,0.00002058,0.0
 0003228,-0.00000605,0.00000078,-0.00000278,0.00000938,0.00000479,0.000
 00735,-0.00000068,-0.00000088,-0.00000082,0.00000170,-0.00000104,0.000
 00098,-0.00000001,0.00000026,-0.00000043,0.00000740,-0.00001247,0.0000
 0824,0.00000179,0.00000089,-0.00000033,-0.00010086,-0.00003537,0.00011
 228,0.00002898,0.00000068,-0.00000710,-0.00004401,0.00003304,0.0000602
 7,0.00000044,-0.00001393,-0.00000212,-0.00000034,-0.00000221,-0.000010
 29,0.00002364,-0.00000470,-0.00000014,-0.00010225,0.00006089,-0.000019
 02,-0.00001296,0.00000758,0.00000939,-0.00000409,0.00000305,0.00000044
 ,-0.00000475,-0.00000261,-0.00000059,0.00000331,-0.00000270,0.00000073
 ,-0.00000014,0.00000035,0.00000004,-0.00006898,0.00002765,-0.00000684,
 -0.00000219,0.00000639,-0.00000301,0.00002336,0.00001186,0.00000673,-0
 .00007803,0.00007126,-0.00002428,-0.00621234,0.00793502,-0.00788554,-0
 .00003794,-0.00003947,-0.00045866,-0.00000085,0.00000154,0.00000134,-0
 .00000065,-0.00000034,0.00000021,0.00000098,-0.00000020,-0.00000133,-0
 .00000685,0.00000411,-0.00000117,0.09243593,0.00000867,0.00000607,0.00
 002497,-0.00001144,-0.00001108,0.00014510,-0.00011288,0.00021127,-0.00
 029054,0.00000226,-0.00000280,0.00000214,-0.00057331,-0.00057953,-0.00
 253265,-0.00000630,-0.00000623,-0.00000299,0.00002418,-0.00000251,0.00
 000002,0.00115026,-0.00114559,0.00089946,-0.00002159,-0.00002656,0.000
 01393,-0.00004024,-0.00003317,0.00000245,0.00000070,-0.00000630,-0.000
 00044,-0.00014034,0.00013124,-0.00025910,0.00012118,0.00009336,0.00002
 571,-0.00006606,-0.00029318,-0.00024730,-0.00259976,0.00138574,-0.0002
 5679,0.00000190,-0.00000375,0.00000341,-0.00002176,-0.00001265,-0.0000
 1025,0.00000018,-0.00001262,0.00000098,-0.00005013,-0.00002991,-0.0000
 1845,-0.00020613,-0.00048299,-0.00022889,0.00068629,-0.00109903,0.0003
 3954,-0.00000406,0.00000505,-0.00000275,-0.00004660,-0.00001216,0.0010
 7736,0.00002381,0.00002565,0.00000136,0.00000685,0.00001144,-0.0000209
 8,0.12368582,-0.30041040,0.16989917,0.01501443,-0.02331406,0.02389606,
 0.00001785,0.00006059,0.00001597,0.00001025,-0.00001464,-0.00000687,-0
 .00003837,0.00028895,0.00002781,0.00000721,-0.00000364,0.00000510,0.00
 001444,0.00001578,-0.00000158,-0.00000812,-0.00000858,0.00000132,-0.00
 000730,-0.00000174,0.00000178,0.00000009,0.00000092,0.00000013,0.00000
 173,-0.00000138,-0.00000021,-0.00000088,0.00000008,-0.00000015,-0.0000
 0131,-0.00000149,0.00000285,-0.00000019,0.00000021,-0.00000012,0.00000
 069,-0.00000131,0.00000033,-0.00000003,0.00000004,-0.00000013,-0.00000
 277,-0.00000131,-0.00000106,0.00000104,-0.00000012,0.00000030,-0.00002
 259,0.00003136,-0.00004676,-0.00000453,-0.00000706,0.00000813,0.000140
 81,0.00003801,-0.00019536,-0.00004071,0.00000755,0.00001862,0.00000516
 ,-0.00003009,0.00000379,0.00000479,-0.00000037,0.00000023,-0.00003930,
 0.00000991,-0.00003040,-0.00007738,-0.00001009,-0.00003543,-0.00044383
 ,0.00012958,-0.00001229,0.00005535,-0.00000781,0.00003624,-0.00003354,
 0.00001883,0.00000469,0.00000192,-0.00000292,0.00000194,-0.00001294,0.
 00001218,-0.00001112,0.00000024,-0.00000133,0.00000178,-0.00000918,0.0
 0000967,-0.00000061,0.00000845,0.00001208,0.00000252,0.00018146,0.0000
 1066,0.00002740,0.00015075,-0.00005243,0.00017824,0.00502161,0.0062079
 8,0.00208598,0.00004917,0.00019605,-0.00008063,-0.00000007,0.00000058,
 -0.00000002,-0.00000002,0.00000055,0.00000050,0.00000241,-0.00000313,-
 0.00000523,0.00001494,0.00000125,0.00000768,-0.14176271,0.31870790,0.0
 0003459,0.00004407,0.00005655,-0.00001786,0.00022626,0.00035042,0.0000
 3226,-0.00006355,0.00010347,0.00000911,-0.00000032,0.00000459,-0.00025
 910,-0.00051769,-0.00028885,0.00000347,0.,-0.00000013,0.00007804,0.000
 00507,-0.00000988,0.00212746,0.00154011,0.00043399,0.00004524,0.000012
 06,0.00004886,0.00001168,0.00000811,-0.00000182,0.00000420,-0.00000302
 ,0.00000214,0.00002367,0.00000320,0.00004294,0.00043541,0.00031781,0.0
 0009083,-0.00001581,-0.00005005,0.00001331,0.00105044,-0.00056429,0.00
 046898,0.00002143,-0.00001022,0.00000858,0.00000754,0.00000137,0.00000
 359,0.00000538,-0.00000499,-0.00000262,-0.00018751,-0.00017157,-0.0000
 0987,-0.00042587,-0.00147749,-0.00049213,-0.00017094,0.00028102,-0.000
 08177,-0.00001780,0.00000238,-0.00000925,-0.00006662,-0.00006350,-0.00
 015008,-0.00000596,-0.00000246,0.00000227,-0.00005031,-0.00000720,-0.0
 0005045,-0.13535858,0.20740046,-0.19082676,0.01008330,-0.01733716,0.01
 288769,0.00000744,0.00030668,-0.00008417,0.00003266,-0.00003199,0.0000
 2848,0.00001689,-0.00009390,-0.00001248,-0.00000317,0.00000147,0.00000
 100,0.00003076,0.00006446,-0.00002002,-0.00002745,-0.00003485,0.000011
 37,0.00000366,-0.00000029,-0.00000167,-0.00000044,0.00000027,0.0000001
 5,0.00000666,0.00000103,-0.00000292,-0.00000078,-0.00000126,0.00000063
 ,0.00001138,0.00000968,0.00001419,-0.00000324,-0.00000013,-0.00000115,
 0.00000451,0.00000211,0.00000300,-0.00000032,-0.00000080,-0.00000001,0
 .00000193,-0.00000014,0.00000044,-0.00000052,0.00000026,-0.00000016,0.
 00000733,-0.00000613,0.00000903,0.00000204,0.00000521,-0.00000353,-0.0
 0001757,-0.00000250,0.00004705,0.00000476,-0.00000106,-0.00000255,-0.0
 0001649,0.00000974,0.00002610,0.00000303,-0.00000861,0.00000212,0.0000
 1197,-0.00000362,0.00000840,0.00002108,0.00000547,0.00000768,0.0001389
 1,-0.00004649,-0.00000394,-0.00002266,0.00000576,-0.00001699,0.0000081
 5,-0.00000646,-0.00000210,0.00000220,0.00000305,0.00000138,0.00000600,
 -0.00000406,0.00000405,-0.00000093,0.00000151,0.00000008,-0.00003193,0
 .00001171,-0.00000141,-0.00000602,-0.00000091,0.00000052,-0.00004943,-
 0.00000011,-0.00000753,-0.00004387,0.00000139,-0.00005805,-0.00291575,
 0.00469473,-0.00403225,-0.00000814,0.00000966,-0.00022666,-0.00000032,
 0.00000075,0.00000089,-0.00000047,-0.00000020,0.00000005,-0.00000167,0
 .00000070,0.00000246,-0.00000960,0.00000210,0.00000337,0.12544316,-0.1
 9446232,0.18171910,0.00010901,0.00009059,-0.00012383,0.00056763,-0.000
 23229,-0.00164277,0.00003679,-0.00006575,-0.00006566,0.00002027,0.0000
 0067,-0.00000558,-0.00015651,-0.00043248,-0.00067863,0.00000376,-0.000
 00219,-0.00000331,0.00007119,-0.00000612,-0.00002512,0.00001215,-0.000
 12885,-0.00023833,0.00035848,0.00070830,-0.00016855,0.00000396,0.00000
 131,-0.00000275,0.00001590,-0.00001353,0.00000484,0.00030363,-0.000712
 18,0.00004936,0.00023819,0.00003181,-0.00012712,0.00028166,-0.00434473
 ,-0.00152163,0.00006138,-0.00007610,-0.00006796,0.00010466,-0.00004417
 ,0.00000951,0.00001472,0.00000092,0.00000306,0.00000669,-0.00000899,-0
 .00000385,-0.00014261,-0.00010121,0.00009964,-0.00026700,0.00003293,0.
 00075754,-0.00005929,0.00007096,0.00004889,-0.00007525,0.00001273,-0.0
 0000964,0.00075833,0.00233683,0.00046482,-0.00000649,0.00000472,0.0000
 0253,-0.00054550,-0.00008030,-0.00001308,-0.00004613,-0.00001736,-0.00
 005066,0.00000096,0.00000716,0.00000745,0.00000433,0.00010185,-0.00019
 484,0.00002328,-0.00002182,0.00002246,-0.00000117,-0.00002760,-0.00001
 493,-0.00000063,0.00000224,0.00000146,0.00001318,0.00004530,-0.0000307
 1,-0.00000881,-0.00002195,0.00000942,0.00000357,-0.00000185,-0.0000019
 1,-0.00000053,0.00000031,0.00000041,0.00000804,0.00000154,-0.00000340,
 -0.00000037,-0.00000138,0.00000065,0.00011012,0.00006607,0.00005525,-0
 .00002360,-0.00000530,0.00000833,0.00002119,0.00000312,0.00000486,-0.0
 0000156,-0.00000125,-0.00000092,0.00000367,-0.00000145,0.00000074,-0.0
 0000116,0.00000157,0.00000041,0.00003631,-0.00004223,0.00002027,0.0000
 0718,0.00000563,-0.00000202,-0.00038946,-0.00036307,0.00007839,0.00008
 135,-0.00000142,-0.00000744,-0.19620019,-0.12575591,0.21545244,-0.0018
 8312,-0.00014650,0.00242318,0.00001303,-0.00000835,-0.00000796,0.00008
 216,-0.00000911,-0.00000133,0.00003396,-0.00000524,-0.00001309,-0.0000
 4619,0.00001943,-0.00000105,0.00000316,-0.00000366,-0.00000225,-0.0000
 0040,0.00000124,0.00000006,0.00001443,-0.00000956,0.00000434,-0.000000
 33,0.00000156,-0.00000031,-0.00002976,0.00001399,0.00000799,-0.0000088
 3,0.00000593,0.00000159,-0.00001918,0.00000126,0.00000829,-0.00023905,
 0.00018142,0.00006302,-0.00001167,0.00012160,0.00033819,-0.00774504,0.
 00029705,0.00850622,-0.00000204,0.00000079,0.00000010,-0.00000093,-0.0
 0000007,-0.00000015,-0.00000008,0.00000060,0.00000104,-0.00002024,-0.0
 0000333,-0.00000304,0.00001345,-0.00001052,-0.00000062,0.20449132,0.00
 013187,0.00012137,-0.00019298,0.00060205,-0.00105678,-0.00234439,-0.00
 002748,0.00004295,0.00006388,0.00004832,0.00000299,-0.00002539,0.00009
 259,0.00026227,0.00062189,0.00000062,-0.00000807,-0.00000244,0.0000810
 2,-0.00001189,-0.00004009,-0.00002712,-0.00033446,-0.00020360,0.002450
 12,-0.00044937,0.00000280,-0.00000646,-0.00000790,0.00000080,0.0000357
 1,-0.00004163,0.00001084,-0.00022717,0.00056512,-0.00002656,0.00023831
 ,0.00000967,-0.00015897,-0.00216349,0.00247938,0.00214820,-0.00002530,
 -0.00000542,0.00005517,0.00037884,-0.00008536,-0.00001552,-0.00001566,
 -0.00001121,-0.00000151,0.00000704,-0.00001749,-0.00000575,-0.00014448
 ,-0.00007328,0.00016803,-0.00033590,0.00011128,0.00083284,0.00002253,-
 0.00002475,-0.00005504,-0.00016619,0.00002169,-0.00002215,-0.00051932,
 -0.00194629,-0.00050834,0.00000171,0.00001690,0.00000196,-0.00089003,-
 0.00049588,0.00018679,0.00000263,-0.00001922,0.00003032,-0.00000368,-0
 .00000309,-0.00000038,0.00000957,0.00009384,-0.00020105,0.00002087,-0.
 00001464,0.00002474,0.00000133,0.00001089,0.00001224,0.00000066,-0.000
 00263,-0.00000114,0.00000792,0.00004809,-0.00004317,-0.00000979,-0.000
 02218,0.00001151,0.00000125,-0.00000302,-0.00000110,-0.00000066,0.0000
 0006,0.00000020,0.00000966,0.00000150,-0.00000561,-0.00000131,-0.00000
 193,0.00000011,0.00016071,0.00012904,0.00007686,-0.00002282,0.00001442
 ,-0.00001276,0.00004486,0.00001209,0.00001844,-0.00000097,-0.00000213,
 -0.00000076,0.00000167,-0.00000447,0.00000110,0.00000131,0.00000083,-0
 .00000042,-0.00003194,0.00003509,-0.00001607,-0.00000309,-0.00000599,-
 0.00000113,0.00024453,0.00029439,-0.00001029,-0.00007406,-0.00002582,-
 0.00001114,-0.10552172,-0.12989662,0.10432404,-0.02537143,-0.01237228,
 0.03066255,-0.00001112,0.00000372,0.00000670,-0.00006844,0.00000746,0.
 00000301,-0.00002035,-0.00000061,0.00001219,0.00004193,-0.00000821,0.0
 0000150,-0.00000219,0.00000109,0.00000165,0.00000062,-0.00000059,-0.00
 000008,-0.00001299,0.00000447,-0.00000210,0.00000030,-0.00000071,0.,-0
 .00004301,0.00002001,0.00002423,-0.00000119,0.00002917,0.00000238,0.00
 001304,0.00000466,-0.00000646,0.00017377,-0.00012455,-0.00006118,0.000
 08997,0.00018909,-0.00029437,0.00227422,0.00904558,-0.00356328,-0.0000
 0085,0.00000153,0.00000102,-0.00000121,0.00000049,-0.00000028,0.000000
 36,0.00000004,-0.00000069,0.00001679,0.00000248,0.00000146,0.00000635,
 0.00000348,-0.00000035,0.12853637,0.13349127,-0.00010769,-0.00008996,0
 .00017809,0.00018400,-0.00045752,-0.00001979,-0.00002526,0.00004124,0.
 00004267,-0.00003560,-0.00000309,0.00001900,0.00006528,0.00023684,0.00
 039304,-0.00000351,0.00000384,0.00000259,-0.00003992,0.00001203,0.0000
 3129,-0.00000146,-0.00001952,0.00003633,-0.00184534,0.00013607,0.00026
 954,-0.00000234,0.,0.00000170,-0.00002679,0.00002710,-0.00000877,-0.00
 020022,0.00048968,-0.00002246,-0.00003542,0.00001663,0.00005893,-0.000
 91142,0.00264989,0.00010606,-0.00003460,0.00003735,0.00004116,-0.00027
 092,0.00005862,0.00000811,-0.00000803,0.00000128,-0.00000382,-0.000005
 39,0.00000926,0.00000451,0.00005437,0.00000689,-0.00015155,0.00004742,
 -0.00010629,-0.00025067,0.00003177,-0.00004118,-0.00003696,0.00011822,
 -0.00000871,0.00001215,-0.00044234,-0.00155071,-0.00039215,0.00000362,
 -0.00000824,-0.00000266,0.00064440,0.00033440,-0.00012870,0.00001978,0
 .00000665,0.00002684,-0.00000298,-0.00001053,0.00000525,0.00000192,-0.
 00002553,0.00006384,-0.00000643,0.00000892,-0.00000786,0.00000120,0.00
 001544,0.00000965,-0.00000011,-0.00000201,-0.00000056,0.00000258,-0.00
 001961,0.00003095,0.00000235,0.00000739,-0.00000469,-0.00000297,0.0000
 0187,0.00000138,0.00000049,-0.00000014,0.,-0.00000623,-0.00000155,0.00
 000399,0.00000195,0.00000177,-0.00000015,-0.00012925,-0.00009433,-0.00
 005844,0.00001936,-0.00001804,0.00001783,-0.00003377,-0.00001078,-0.00
 001649,0.00000029,0.00000218,0.00000097,-0.00000351,0.00000225,-0.0000
 0183,-0.00000036,-0.00000002,0.00000109,-0.00002382,0.00002760,-0.0000
 1561,-0.00000105,-0.00000449,0.00000390,0.00022891,0.00023292,-0.00003
 576,-0.00006174,-0.00002121,0.00000348,0.23022776,0.13528923,-0.256981
 39,-0.00887340,-0.00594830,0.00825194,-0.00000840,0.00000491,0.0000033
 0,-0.00005285,0.00000654,0.00000054,-0.00002080,0.00000216,0.00000857,
 0.00002825,-0.00001183,0.00000554,-0.00000249,0.00000191,0.00000111,0.
 00000057,-0.00000071,0.00000028,-0.00000894,0.00000635,-0.00000428,0.0
 0000003,-0.00000098,0.00000060,0.00003352,-0.00001010,-0.00001630,0.00
 000961,-0.00001313,-0.00000127,0.00001111,-0.00000091,-0.00000326,0.00
 015135,-0.00011951,-0.00004210,0.00003657,-0.00001982,-0.00022344,0.00
 472225,0.00041448,-0.00451033,0.00000006,-0.00000102,-0.00000132,0.000
 00101,0.00000016,0.00000044,0.00000060,-0.00000012,-0.00000072,0.00001
 225,0.00000251,0.00000214,-0.00000524,-0.00000358,-0.00000856,-0.22342
 230,-0.13147289,0.25330310\\-0.00000333,0.00000342,-0.00002358,0.00000
 785,0.00000743,0.00003251,-0.00000532,0.00001349,0.00004332,0.00000084
 ,0.00000525,-0.00001122,-0.00000257,0.00002211,0.00001254,-0.00000565,
 0.00000515,-0.00000777,-0.00000395,-0.00000498,-0.00000580,0.00000471,
 -0.00000419,0.00000216,-0.00000385,-0.00000340,0.00001343,-0.00001888,
 0.00000676,-0.00000284,-0.00000242,-0.00000199,-0.00000819,0.00000652,
 -0.00001153,0.00002868,-0.00000646,-0.00000075,-0.00000209,-0.00001027
 ,0.00000809,0.00000478,-0.00001372,-0.00000428,0.00001068,-0.00000219,
 -0.00000298,-0.00000516,0.00000756,-0.00000249,0.00000997,0.00000332,-
 0.00000120,-0.00001787,0.00000236,0.00000907,0.00000810,-0.00001067,0.
 00000730,0.00001501,-0.00000492,0.00000265,-0.00000013,0.00002509,-0.0
 0000634,-0.00000783,0.00001443,-0.00000102,0.00001183,-0.00000610,-0.0
 0001192,-0.00002015,0.00002202,-0.00000674,0.00001722,-0.00000720,0.00
 000139,0.00001532,-0.00001606,0.00000578,0.00002012,-0.00000819,-0.000
 00189,0.00001045,-0.00000604,0.00000626,0.00001753,-0.00000839,0.00000
 402,0.00000909,-0.00001583,0.00000125,0.00000708,-0.00000604,-0.000001
 69,0.00000096,-0.00000559,0.00000238,0.00000658,-0.00001125,-0.0000046
 1,-0.00001961,-0.00000918,-0.00000519,-0.00002004,-0.00000078,-0.00000
 378,-0.00001347,-0.00000799,-0.00000391,-0.00001566,0.00001384,-0.0000
 0625,0.00000417,0.00001366,0.00000324,-0.00000781,0.00001134,0.0000037
 8,-0.00001862,0.00001564,-0.00000897,-0.00000899,0.00001344,-0.0000020
 5,-0.00002610,0.00000793,-0.00000734,-0.00002117,0.00000872,-0.0000051
 8,0.00001219,0.00000046,0.00000443,0.00000447,0.00000869,-0.00000357,0
 .00001540,0.00000671,0.00000994,0.00002792,0.00002107,-0.00000391,0.00
 002994,0.00000652,0.00000517,0.00000757,0.00002070,-0.00001201,-0.0000
 3139,0.00000763,0.00000111,0.00000061,-0.00000826,0.00000129,-0.000008
 75,-0.00001272,0.00001041,0.00001176,-0.00001487,-0.00000642,-0.000004
 10,-0.00000881,-0.00000195,-0.00001234,0.00000340,-0.00000287,-0.00000
 388,0.00000541,-0.00000256,-0.00000887,-0.00000870,-0.00000721,-0.0000
 0698,0.00001447,-0.00001057,-0.00002983,-0.00001465,-0.00000352,-0.000
 00390,-0.00000368,0.00000399,-0.00004128,-0.00001337,0.00000537,0.0000
 2146,0.00002479,0.00000321,-0.00001008,-0.00000914,-0.00000373,-0.0000
 1825,0.00000763,-0.00000561,-0.00001635,-0.00001586,-0.00000044,-0.000
 00936,0.00000845,0.,-0.00000114,-0.00001230,0.00000598,0.00002140,0.00
 001002,0.00000933,0.00001634\\\@


 There ain't no surer way to find out whether you
 like people or hate them than to travel with them.
                                     -- Mark Twain
 Job cpu time:       0 days 22 hours 15 minutes 36.5 seconds.
 File lengths (MBytes):  RWF=   9435 Int=      0 D2E=      0 Chk=    113 Scr=      1
 Normal termination of Gaussian 09 at Tue Jan 19 17:39:11 2021.
