 Entering Gaussian System, Link 0=g09
 Initial command:
 /ihome/crc/build/g09/g09-D.01/TAR/g09/l1.exe "/scratch/slurm-1999161/Gau-13185.inp" -scrdir="/scratch/slurm-1999161/"
 Entering Link 1 = /ihome/crc/build/g09/g09-D.01/TAR/g09/l1.exe PID=     13186.
  
 Copyright (c) 1988,1990,1992,1993,1995,1998,2003,2009,2013,
            Gaussian, Inc.  All Rights Reserved.
  
 This is part of the Gaussian(R) 09 program.  It is based on
 the Gaussian(R) 03 system (copyright 2003, Gaussian, Inc.),
 the Gaussian(R) 98 system (copyright 1998, Gaussian, Inc.),
 the Gaussian(R) 94 system (copyright 1995, Gaussian, Inc.),
 the Gaussian 92(TM) system (copyright 1992, Gaussian, Inc.),
 the Gaussian 90(TM) system (copyright 1990, Gaussian, Inc.),
 the Gaussian 88(TM) system (copyright 1988, Gaussian, Inc.),
 the Gaussian 86(TM) system (copyright 1986, Carnegie Mellon
 University), and the Gaussian 82(TM) system (copyright 1983,
 Carnegie Mellon University). Gaussian is a federally registered
 trademark of Gaussian, Inc.
  
 This software contains proprietary and confidential information,
 including trade secrets, belonging to Gaussian, Inc.
  
 This software is provided under written license and may be
 used, copied, transmitted, or stored only in accord with that
 written license.
  
 The following legend is applicable only to US Government
 contracts under FAR:
  
                    RESTRICTED RIGHTS LEGEND
  
 Use, reproduction and disclosure by the US Government is
 subject to restrictions as set forth in subparagraphs (a)
 and (c) of the Commercial Computer Software - Restricted
 Rights clause in FAR 52.227-19.
  
 Gaussian, Inc.
 340 Quinnipiac St., Bldg. 40, Wallingford CT 06492
  
  
 ---------------------------------------------------------------
 Warning -- This program may not be used in any manner that
 competes with the business of Gaussian, Inc. or will provide
 assistance to any competitor of Gaussian, Inc.  The licensee
 of this program is prohibited from giving any competitor of
 Gaussian, Inc. access to this program.  By using this program,
 the user acknowledges that Gaussian, Inc. is engaged in the
 business of creating and licensing software in the field of
 computational chemistry and represents and warrants to the
 licensee that it is not a competitor of Gaussian, Inc. and that
 it will not use this program in any manner prohibited above.
 ---------------------------------------------------------------
  

 Cite this work as:
 Gaussian 09, Revision D.01,
 M. J. Frisch, G. W. Trucks, H. B. Schlegel, G. E. Scuseria, 
 M. A. Robb, J. R. Cheeseman, G. Scalmani, V. Barone, B. Mennucci, 
 G. A. Petersson, H. Nakatsuji, M. Caricato, X. Li, H. P. Hratchian, 
 A. F. Izmaylov, J. Bloino, G. Zheng, J. L. Sonnenberg, M. Hada, 
 M. Ehara, K. Toyota, R. Fukuda, J. Hasegawa, M. Ishida, T. Nakajima, 
 Y. Honda, O. Kitao, H. Nakai, T. Vreven, J. A. Montgomery, Jr., 
 J. E. Peralta, F. Ogliaro, M. Bearpark, J. J. Heyd, E. Brothers, 
 K. N. Kudin, V. N. Staroverov, T. Keith, R. Kobayashi, J. Normand, 
 K. Raghavachari, A. Rendell, J. C. Burant, S. S. Iyengar, J. Tomasi, 
 M. Cossi, N. Rega, J. M. Millam, M. Klene, J. E. Knox, J. B. Cross, 
 V. Bakken, C. Adamo, J. Jaramillo, R. Gomperts, R. E. Stratmann, 
 O. Yazyev, A. J. Austin, R. Cammi, C. Pomelli, J. W. Ochterski, 
 R. L. Martin, K. Morokuma, V. G. Zakrzewski, G. A. Voth, 
 P. Salvador, J. J. Dannenberg, S. Dapprich, A. D. Daniels, 
 O. Farkas, J. B. Foresman, J. V. Ortiz, J. Cioslowski, 
 and D. J. Fox, Gaussian, Inc., Wallingford CT, 2013.
 
 ******************************************
 Gaussian 09:  EM64L-G09RevD.01 24-Apr-2013
                26-Nov-2020 
 ******************************************
 %nprocshared=12
 Will use up to   12 processors via shared memory.
 %mem=200gb
 ----------------------------------------------------------------------
 # opt freq=noraman 6-311g(d,p) scrf=(cpcm,solvent=water) geom=connecti
 vity m062x temperature=373
 ----------------------------------------------------------------------
 1/14=-1,18=20,19=15,26=3,38=1,57=2,112=373000/1,3;
 2/9=110,12=2,17=6,18=5,40=1/2;
 3/5=4,6=6,7=101,11=2,16=1,25=1,30=1,70=2101,71=1,72=1,74=-55/1,2,3;
 4//1;
 5/5=2,38=5,53=1/2;
 6/7=2,8=2,9=2,10=2,28=1/1;
 7//1,2,3,16;
 1/14=-1,18=20,19=15,26=3/3(2);
 2/9=110/2;
 99//99;
 2/9=110/2;
 3/5=4,6=6,7=101,11=2,16=1,25=1,30=1,70=2105,71=1,72=1,74=-55/1,2,3;
 4/5=5,16=3,69=1/1;
 5/5=2,38=5,53=1/2;
 7//1,2,3,16;
 1/14=-1,18=20,19=15,26=3/3(-5);
 2/9=110/2;
 6/7=2,8=2,9=2,10=2,19=2,28=1/1;
 99/9=1/99;
 -------------------
 Title Card Required
 -------------------
 Symbolic Z-matrix:
 Charge =  0 Multiplicity = 1
 Si                    1.53306  -1.06894  -1.40721 
 O                     2.00706   0.52356  -1.52685 
 Si                    1.62895   1.62045  -0.34682 
 O                     0.07127   2.12998  -0.57978 
 O                    -0.08908  -0.94719  -1.36649 
 Si                   -1.4935    1.76558  -0.19297 
 O                    -2.26809   0.82886  -1.22788 
 O                    -2.86713  -2.16632  -2.14412 
 H                    -3.26968  -1.93767  -2.97877 
 O                     2.29451  -1.95976  -2.57843 
 H                     2.40038  -1.56866  -3.45497 
 O                     2.57073   2.95396  -0.50276 
 H                     3.51142   2.8743   -0.33616 
 O                     1.73002   0.89603   1.08622 
 O                    -1.5294    0.93864   1.21178 
 O                    -2.29482   3.18848  -0.09819 
 H                    -1.82315   3.92767   0.28134 
 O                    -0.01937  -1.10619   2.22768 
 Si                   -1.50788  -0.67118   1.60531 
 O                     2.83837  -1.14586   2.71335 
 H                     2.97015  -1.96897   3.18745 
 O                    -2.59066  -0.8596    2.83171 
 H                    -3.33192  -0.25752   2.8701 
 O                    -1.71899  -1.55353   0.26905 
 O                     1.93559  -1.69689   0.02716 
 Al                    1.53373  -0.79295   1.45867 
 Al                   -1.8746   -0.81318  -1.32166 
 H                    -2.33993  -2.91944  -2.28521 
 H                     3.50527  -0.50622   2.97927 
 

 GradGradGradGradGradGradGradGradGradGradGradGradGradGradGradGradGradGrad
 Berny optimization.
 Initialization pass.
                           ----------------------------
                           !    Initial Parameters    !
                           ! (Angstroms and Degrees)  !
 --------------------------                            --------------------------
 ! Name  Definition              Value          Derivative Info.                !
 --------------------------------------------------------------------------------
 ! R1    R(1,2)                  1.6658         estimate D2E/DX2                !
 ! R2    R(1,5)                  1.6272         estimate D2E/DX2                !
 ! R3    R(1,10)                 1.6568         estimate D2E/DX2                !
 ! R4    R(1,25)                 1.6167         estimate D2E/DX2                !
 ! R5    R(2,3)                  1.6549         estimate D2E/DX2                !
 ! R6    R(3,4)                  1.6554         estimate D2E/DX2                !
 ! R7    R(3,12)                 1.64           estimate D2E/DX2                !
 ! R8    R(3,14)                 1.6089         estimate D2E/DX2                !
 ! R9    R(4,6)                  1.6526         estimate D2E/DX2                !
 ! R10   R(5,27)                 1.7911         estimate D2E/DX2                !
 ! R11   R(6,7)                  1.5964         estimate D2E/DX2                !
 ! R12   R(6,15)                 1.6305         estimate D2E/DX2                !
 ! R13   R(6,16)                 1.6358         estimate D2E/DX2                !
 ! R14   R(7,27)                 1.6911         estimate D2E/DX2                !
 ! R15   R(8,9)                  0.9544         estimate D2E/DX2                !
 ! R16   R(8,27)                 1.8688         estimate D2E/DX2                !
 ! R17   R(8,28)                 0.9301         estimate D2E/DX2                !
 ! R18   R(10,11)                0.9656         estimate D2E/DX2                !
 ! R19   R(12,13)                0.9586         estimate D2E/DX2                !
 ! R20   R(14,26)                1.7407         estimate D2E/DX2                !
 ! R21   R(15,19)                1.6574         estimate D2E/DX2                !
 ! R22   R(16,17)                0.9555         estimate D2E/DX2                !
 ! R23   R(18,19)                1.671          estimate D2E/DX2                !
 ! R24   R(18,26)                1.7611         estimate D2E/DX2                !
 ! R25   R(19,22)                1.6468         estimate D2E/DX2                !
 ! R26   R(19,24)                1.6151         estimate D2E/DX2                !
 ! R27   R(20,21)                0.959          estimate D2E/DX2                !
 ! R28   R(20,26)                1.8441         estimate D2E/DX2                !
 ! R29   R(20,29)                0.9616         estimate D2E/DX2                !
 ! R30   R(22,23)                0.9557         estimate D2E/DX2                !
 ! R31   R(24,27)                1.7614         estimate D2E/DX2                !
 ! R32   R(25,26)                1.7401         estimate D2E/DX2                !
 ! A1    A(2,1,5)              102.3523         estimate D2E/DX2                !
 ! A2    A(2,1,10)             109.4177         estimate D2E/DX2                !
 ! A3    A(2,1,25)             111.3571         estimate D2E/DX2                !
 ! A4    A(5,1,10)             121.069          estimate D2E/DX2                !
 ! A5    A(5,1,25)             104.7771         estimate D2E/DX2                !
 ! A6    A(10,1,25)            107.6926         estimate D2E/DX2                !
 ! A7    A(1,2,3)              121.1591         estimate D2E/DX2                !
 ! A8    A(2,3,4)              108.5824         estimate D2E/DX2                !
 ! A9    A(2,3,12)             109.8739         estimate D2E/DX2                !
 ! A10   A(2,3,14)             108.804          estimate D2E/DX2                !
 ! A11   A(4,3,12)             106.0637         estimate D2E/DX2                !
 ! A12   A(4,3,14)             108.8469         estimate D2E/DX2                !
 ! A13   A(12,3,14)            114.5026         estimate D2E/DX2                !
 ! A14   A(3,4,6)              142.2036         estimate D2E/DX2                !
 ! A15   A(4,6,7)              115.9179         estimate D2E/DX2                !
 ! A16   A(4,6,15)             109.5326         estimate D2E/DX2                !
 ! A17   A(4,6,16)             106.5952         estimate D2E/DX2                !
 ! A18   A(7,6,15)             104.492          estimate D2E/DX2                !
 ! A19   A(7,6,16)             108.0765         estimate D2E/DX2                !
 ! A20   A(15,6,16)            112.3631         estimate D2E/DX2                !
 ! A21   A(6,7,27)             119.5244         estimate D2E/DX2                !
 ! A22   A(9,8,27)             115.81           estimate D2E/DX2                !
 ! A23   A(9,8,28)             107.4825         estimate D2E/DX2                !
 ! A24   A(27,8,28)            110.6105         estimate D2E/DX2                !
 ! A25   A(1,10,11)            118.3132         estimate D2E/DX2                !
 ! A26   A(3,12,13)            118.6469         estimate D2E/DX2                !
 ! A27   A(3,14,26)            128.3439         estimate D2E/DX2                !
 ! A28   A(6,15,19)            134.1803         estimate D2E/DX2                !
 ! A29   A(6,16,17)            117.0099         estimate D2E/DX2                !
 ! A30   A(19,18,26)           125.2134         estimate D2E/DX2                !
 ! A31   A(15,19,18)           110.6627         estimate D2E/DX2                !
 ! A32   A(15,19,22)           106.2259         estimate D2E/DX2                !
 ! A33   A(15,19,24)           109.4199         estimate D2E/DX2                !
 ! A34   A(18,19,22)           106.1728         estimate D2E/DX2                !
 ! A35   A(18,19,24)           106.401          estimate D2E/DX2                !
 ! A36   A(22,19,24)           117.8837         estimate D2E/DX2                !
 ! A37   A(21,20,26)           126.7137         estimate D2E/DX2                !
 ! A38   A(21,20,29)           109.8121         estimate D2E/DX2                !
 ! A39   A(26,20,29)           123.4711         estimate D2E/DX2                !
 ! A40   A(19,22,23)           117.8906         estimate D2E/DX2                !
 ! A41   A(19,24,27)           121.9423         estimate D2E/DX2                !
 ! A42   A(1,25,26)            118.0745         estimate D2E/DX2                !
 ! A43   A(14,26,18)           111.4358         estimate D2E/DX2                !
 ! A44   A(14,26,20)           104.5652         estimate D2E/DX2                !
 ! A45   A(14,26,25)           107.5771         estimate D2E/DX2                !
 ! A46   A(18,26,20)           107.0236         estimate D2E/DX2                !
 ! A47   A(18,26,25)           118.0666         estimate D2E/DX2                !
 ! A48   A(20,26,25)           107.2728         estimate D2E/DX2                !
 ! A49   A(5,27,7)             107.8178         estimate D2E/DX2                !
 ! A50   A(5,27,8)             117.6615         estimate D2E/DX2                !
 ! A51   A(5,27,24)             84.4389         estimate D2E/DX2                !
 ! A52   A(7,27,8)             127.1475         estimate D2E/DX2                !
 ! A53   A(7,27,24)            112.2461         estimate D2E/DX2                !
 ! A54   A(8,27,24)             98.0492         estimate D2E/DX2                !
 ! A55   L(1,5,27,4,-1)        180.0            estimate D2E/DX2                !
 ! A56   L(1,5,27,4,-2)        180.0            estimate D2E/DX2                !
 ! D1    D(5,1,2,3)             60.9504         estimate D2E/DX2                !
 ! D2    D(10,1,2,3)          -169.4546         estimate D2E/DX2                !
 ! D3    D(25,1,2,3)           -50.5181         estimate D2E/DX2                !
 ! D4    D(2,1,27,7)            -6.7811         estimate D2E/DX2                !
 ! D5    D(2,1,27,8)           145.4226         estimate D2E/DX2                !
 ! D6    D(2,1,27,24)         -118.3885         estimate D2E/DX2                !
 ! D7    D(10,1,27,7)         -128.7374         estimate D2E/DX2                !
 ! D8    D(10,1,27,8)           23.4663         estimate D2E/DX2                !
 ! D9    D(10,1,27,24)         119.6552         estimate D2E/DX2                !
 ! D10   D(25,1,27,7)          109.5354         estimate D2E/DX2                !
 ! D11   D(25,1,27,8)          -98.2609         estimate D2E/DX2                !
 ! D12   D(25,1,27,24)          -2.0721         estimate D2E/DX2                !
 ! D13   D(2,1,10,11)          -39.4386         estimate D2E/DX2                !
 ! D14   D(5,1,10,11)           79.0638         estimate D2E/DX2                !
 ! D15   D(25,1,10,11)        -160.6209         estimate D2E/DX2                !
 ! D16   D(2,1,25,26)           48.6211         estimate D2E/DX2                !
 ! D17   D(5,1,25,26)          -61.2985         estimate D2E/DX2                !
 ! D18   D(10,1,25,26)         168.5832         estimate D2E/DX2                !
 ! D19   D(1,2,3,4)            -80.9009         estimate D2E/DX2                !
 ! D20   D(1,2,3,12)           163.5084         estimate D2E/DX2                !
 ! D21   D(1,2,3,14)            37.426          estimate D2E/DX2                !
 ! D22   D(2,3,4,6)             88.5485         estimate D2E/DX2                !
 ! D23   D(12,3,4,6)          -153.4154         estimate D2E/DX2                !
 ! D24   D(14,3,4,6)           -29.7512         estimate D2E/DX2                !
 ! D25   D(2,3,12,13)          -67.3123         estimate D2E/DX2                !
 ! D26   D(4,3,12,13)          175.5131         estimate D2E/DX2                !
 ! D27   D(14,3,12,13)          55.4682         estimate D2E/DX2                !
 ! D28   D(2,3,14,26)          -26.4418         estimate D2E/DX2                !
 ! D29   D(4,3,14,26)           91.7183         estimate D2E/DX2                !
 ! D30   D(12,3,14,26)        -149.7989         estimate D2E/DX2                !
 ! D31   D(3,4,6,7)            -92.2679         estimate D2E/DX2                !
 ! D32   D(3,4,6,15)            25.6119         estimate D2E/DX2                !
 ! D33   D(3,4,6,16)           147.4136         estimate D2E/DX2                !
 ! D34   D(4,6,7,27)            72.5576         estimate D2E/DX2                !
 ! D35   D(15,6,7,27)          -48.0765         estimate D2E/DX2                !
 ! D36   D(16,6,7,27)         -167.9275         estimate D2E/DX2                !
 ! D37   D(4,6,15,19)          -92.0733         estimate D2E/DX2                !
 ! D38   D(7,6,15,19)           32.7264         estimate D2E/DX2                !
 ! D39   D(16,6,15,19)         149.6554         estimate D2E/DX2                !
 ! D40   D(4,6,16,17)          -37.7878         estimate D2E/DX2                !
 ! D41   D(7,6,16,17)         -163.03           estimate D2E/DX2                !
 ! D42   D(15,6,16,17)          82.2029         estimate D2E/DX2                !
 ! D43   D(6,7,27,5)           -46.106          estimate D2E/DX2                !
 ! D44   D(6,7,27,8)           165.1041         estimate D2E/DX2                !
 ! D45   D(6,7,27,24)           45.1254         estimate D2E/DX2                !
 ! D46   D(9,8,27,5)          -105.5954         estimate D2E/DX2                !
 ! D47   D(9,8,27,7)            40.5572         estimate D2E/DX2                !
 ! D48   D(9,8,27,24)          166.4893         estimate D2E/DX2                !
 ! D49   D(28,8,27,5)           16.98           estimate D2E/DX2                !
 ! D50   D(28,8,27,7)          163.1327         estimate D2E/DX2                !
 ! D51   D(28,8,27,24)         -70.9352         estimate D2E/DX2                !
 ! D52   D(3,14,26,18)        -104.8326         estimate D2E/DX2                !
 ! D53   D(3,14,26,20)         139.8914         estimate D2E/DX2                !
 ! D54   D(3,14,26,25)          26.0558         estimate D2E/DX2                !
 ! D55   D(6,15,19,18)         106.2168         estimate D2E/DX2                !
 ! D56   D(6,15,19,22)        -138.9623         estimate D2E/DX2                !
 ! D57   D(6,15,19,24)         -10.7149         estimate D2E/DX2                !
 ! D58   D(26,18,19,15)        -52.2074         estimate D2E/DX2                !
 ! D59   D(26,18,19,22)       -167.0617         estimate D2E/DX2                !
 ! D60   D(26,18,19,24)         66.5707         estimate D2E/DX2                !
 ! D61   D(19,18,26,14)         54.4118         estimate D2E/DX2                !
 ! D62   D(19,18,26,20)        168.1626         estimate D2E/DX2                !
 ! D63   D(19,18,26,25)        -70.8287         estimate D2E/DX2                !
 ! D64   D(15,19,22,23)         28.8743         estimate D2E/DX2                !
 ! D65   D(18,19,22,23)        146.717          estimate D2E/DX2                !
 ! D66   D(24,19,22,23)        -94.2014         estimate D2E/DX2                !
 ! D67   D(15,19,24,27)          2.1541         estimate D2E/DX2                !
 ! D68   D(18,19,24,27)       -117.4358         estimate D2E/DX2                !
 ! D69   D(22,19,24,27)        123.6027         estimate D2E/DX2                !
 ! D70   D(21,20,26,14)        174.8854         estimate D2E/DX2                !
 ! D71   D(21,20,26,18)         56.5618         estimate D2E/DX2                !
 ! D72   D(21,20,26,25)        -71.0639         estimate D2E/DX2                !
 ! D73   D(29,20,26,14)         -5.824          estimate D2E/DX2                !
 ! D74   D(29,20,26,18)       -124.1476         estimate D2E/DX2                !
 ! D75   D(29,20,26,25)        108.2266         estimate D2E/DX2                !
 ! D76   D(19,24,27,5)          88.8163         estimate D2E/DX2                !
 ! D77   D(19,24,27,7)         -18.1815         estimate D2E/DX2                !
 ! D78   D(19,24,27,8)        -153.9697         estimate D2E/DX2                !
 ! D79   D(1,25,26,14)         -35.97           estimate D2E/DX2                !
 ! D80   D(1,25,26,18)          91.1403         estimate D2E/DX2                !
 ! D81   D(1,25,26,20)        -147.9793         estimate D2E/DX2                !
 --------------------------------------------------------------------------------
 Trust Radius=3.00D-01 FncErr=1.00D-07 GrdErr=1.00D-06
 Number of steps in this run=    174 maximum allowed number of steps=    174.
 GradGradGradGradGradGradGradGradGradGradGradGradGradGradGradGradGradGrad

                          Input orientation:                          
 ---------------------------------------------------------------------
 Center     Atomic      Atomic             Coordinates (Angstroms)
 Number     Number       Type             X           Y           Z
 ---------------------------------------------------------------------
      1         14           0        1.533059   -1.068940   -1.407213
      2          8           0        2.007059    0.523563   -1.526850
      3         14           0        1.628954    1.620446   -0.346821
      4          8           0        0.071273    2.129977   -0.579778
      5          8           0       -0.089083   -0.947189   -1.366485
      6         14           0       -1.493504    1.765584   -0.192972
      7          8           0       -2.268085    0.828864   -1.227875
      8          8           0       -2.867127   -2.166324   -2.144124
      9          1           0       -3.269679   -1.937666   -2.978765
     10          8           0        2.294510   -1.959760   -2.578431
     11          1           0        2.400376   -1.568664   -3.454966
     12          8           0        2.570729    2.953960   -0.502761
     13          1           0        3.511415    2.874298   -0.336160
     14          8           0        1.730016    0.896030    1.086222
     15          8           0       -1.529401    0.938637    1.211776
     16          8           0       -2.294824    3.188483   -0.098194
     17          1           0       -1.823145    3.927672    0.281342
     18          8           0       -0.019374   -1.106191    2.227680
     19         14           0       -1.507883   -0.671179    1.605305
     20          8           0        2.838371   -1.145855    2.713349
     21          1           0        2.970147   -1.968974    3.187451
     22          8           0       -2.590659   -0.859601    2.831706
     23          1           0       -3.331924   -0.257516    2.870098
     24          8           0       -1.718994   -1.553531    0.269054
     25          8           0        1.935590   -1.696885    0.027157
     26         13           0        1.533726   -0.792952    1.458670
     27         13           0       -1.874596   -0.813176   -1.321655
     28          1           0       -2.339927   -2.919440   -2.285208
     29          1           0        3.505273   -0.506216    2.979269
 ---------------------------------------------------------------------
                    Distance matrix (angstroms):
                    1          2          3          4          5
     1  Si   0.000000
     2  O    1.665850   0.000000
     3  Si   2.892477   1.654867   0.000000
     4  O    3.613106   2.687895   1.655373   0.000000
     5  O    1.627214   2.565666   3.253324   3.180184   0.000000
     6  Si   4.320763   3.946617   3.129613   1.652552   3.272410
     7  O    4.252354   4.296446   4.073054   2.754182   2.814538
     8  O    4.594445   5.601268   6.146924   5.435032   3.131859
     9  H    5.127451   6.000806   6.601810   5.784706   3.700903
    10  O    1.656840   2.712074   4.270939   5.065900   2.859306
    11  H    2.279310   2.872237   4.519522   5.231766   3.308382
    12  O    4.251884   2.696908   1.639975   2.632900   4.799957
    13  H    4.539843   3.034268   2.261839   3.528164   5.350600
    14  O    3.180742   2.653984   1.608914   2.655110   3.566840
    15  O    4.502014   4.492094   3.587380   2.681625   3.504038
    16  O    5.872978   5.258237   4.232799   2.636432   4.855681
    17  H    6.251516   5.433965   4.199389   2.749919   5.430154
    18  O    3.952706   4.567168   4.096290   4.285186   3.598356
    19  Si   4.298931   4.857224   4.347653   3.887775   3.304650
    20  O    4.323053   4.632205   4.298808   5.406717   5.025386
    21  H    4.897573   5.418940   5.212851   6.276694   5.580436
    22  O    5.917542   6.484533   5.835992   5.259437   4.887777
    23  H    6.528542   6.960458   6.203678   5.402177   5.379619
    24  O    3.690603   4.628505   4.654266   4.182559   2.387310
    25  O    1.616714   2.711169   3.352398   4.299875   2.569744
    26  Al   2.879141   3.297057   3.015519   3.851954   3.261717
    27  Al   3.418311   4.110501   4.375806   3.605404   1.791096
    28  H    4.381238   5.596933   6.334029   5.849700   3.130515
    29  H    4.842263   4.859033   4.371057   5.604345   5.656804
                    6          7          8          9         10
     6  Si   0.000000
     7  O    1.596385   0.000000
     8  O    4.599319   3.188968   0.000000
     9  H    4.962812   3.423813   0.954441   0.000000
    10  O    5.823886   5.515224   5.183993   5.578616   0.000000
    11  H    6.076193   5.701105   5.460961   5.701969   0.965649
    12  O    4.245727   5.334411   7.647330   8.010553   5.341287
    13  H    5.128252   6.195287   8.328409   8.724769   5.465963
    14  O    3.575408   4.619997   6.398974   7.039240   4.680157
    15  O    1.630474   2.551392   4.763650   5.372366   6.114628
    16  O    1.635768   2.616237   5.760844   5.960322   7.329254
    17  H    2.237915   3.475388   6.641504   6.864616   7.732738
    18  O    4.034812   4.554339   5.324120   6.193779   5.401976
    19  Si   3.028501   3.294684   4.259251   5.071648   5.798472
    20  O    5.973970   6.746010   7.562348   8.386620   5.381558
    21  H    6.730406   7.400140   7.908123   8.772607   5.805339
    22  O    4.152592   4.408533   5.151975   5.948518   7.371893
    23  H    4.105499   4.370968   5.385351   6.085719   8.015040
    24  O    3.358696   2.866723   2.741743   3.619463   4.937753
    25  O    4.878097   5.062153   5.291590   6.015677   2.643296
    26  Al   4.293967   4.929663   5.850964   6.638818   4.270646
    27  Al   2.840627   1.691131   1.868845   2.440645   4.502842
    28  H    5.200320   3.895240   0.930069   1.519651   4.741832
    29  H    6.341290   7.267335   8.343416   9.134944   5.870840
                   11         12         13         14         15
    11  H    0.000000
    12  O    5.403579   0.000000
    13  H    5.540873   0.958641   0.000000
    14  O    5.210229   2.732534   3.018294   0.000000
    15  O    6.596074   4.879778   5.617180   3.262113   0.000000
    16  O    7.479523   4.887973   5.819601   4.780954   2.713614
    17  H    7.874505   4.568267   5.472516   4.739582   3.144252
    18  O    6.193669   5.536133   5.906271   2.893472   2.737437
    19  Si   6.456494   5.849842   6.444614   3.634499   1.657358
    20  O    6.198283   5.217612   5.090592   2.836422   5.067273
    21  H    6.678817   6.165426   6.013825   3.763155   5.709941
    22  O    8.058253   7.232001   7.823854   4.979677   2.642745
    23  H    8.636250   7.518715   8.180442   5.489637   2.725785
    24  O    5.553176   6.270159   6.879617   4.308571   2.671249
    25  O    3.515345   4.723830   4.848808   2.808396   4.511703
    26  Al   5.049419   4.354531   4.536672   1.740663   3.527337
    27  Al   4.837061   5.884116   6.601347   4.659666   3.099400
    28  H    5.065906   7.860565   8.461938   6.518342   5.269783
    29  H    6.614301   4.997071   4.734974   2.949823   5.528071
                   16         17         18         19         20
    16  O    0.000000
    17  H    0.955473   0.000000
    18  O    5.388097   5.690483   0.000000
    19  Si   4.291640   4.796009   1.671001   0.000000
    20  O    7.282922   7.306508   2.898992   4.510322   0.000000
    21  H    8.069371   8.135819   3.256193   4.923435   0.958990
    22  O    5.005878   5.478268   2.652765   1.646805   5.437860
    23  H    4.664895   5.147220   3.479359   2.257863   6.235885
    24  O    4.790944   5.482206   2.631547   1.615141   5.187519
    25  O    6.463663   6.769663   3.002183   3.924300   2.886914
    26  Al   5.738767   5.910920   1.761140   3.047575   1.844142
    27  Al   4.205559   5.004786   4.015655   2.953259   6.213211
    28  H    6.487818   7.330565   5.388784   4.569799   7.412553
    29  H    7.534103   7.438428   3.653490   5.200646   0.961566
                   21         22         23         24         25
    21  H    0.000000
    22  O    5.681534   0.000000
    23  H    6.538035   0.955748   0.000000
    24  O    5.538743   2.794374   3.323647   0.000000
    25  O    3.336435   5.390127   6.156363   3.665385   0.000000
    26  Al   2.536733   4.347439   5.094445   3.545963   1.740063
    27  Al   6.718589   4.214891   4.472511   1.761446   4.137361
    28  H    7.684417   5.521649   5.886177   2.962350   5.012157
    29  H    1.571420   6.107949   6.842590   5.977884   3.549164
                   26         27         28         29
    26  Al   0.000000
    27  Al   4.398554   0.000000
    28  H    5.791698   2.362481   0.000000
    29  H    2.506279   6.894575   8.228288   0.000000
 Stoichiometry    Al2H8O15Si4
 Framework group  C1[X(Al2H8O15Si4)]
 Deg. of freedom    81
 Full point group                 C1      NOp   1
 Largest Abelian subgroup         C1      NOp   1
 Largest concise Abelian subgroup C1      NOp   1
                         Standard orientation:                         
 ---------------------------------------------------------------------
 Center     Atomic      Atomic             Coordinates (Angstroms)
 Number     Number       Type             X           Y           Z
 ---------------------------------------------------------------------
      1         14           0        1.533059   -1.068940   -1.407213
      2          8           0        2.007059    0.523563   -1.526850
      3         14           0        1.628954    1.620446   -0.346821
      4          8           0        0.071273    2.129977   -0.579778
      5          8           0       -0.089083   -0.947189   -1.366485
      6         14           0       -1.493504    1.765584   -0.192972
      7          8           0       -2.268085    0.828864   -1.227875
      8          8           0       -2.867127   -2.166324   -2.144124
      9          1           0       -3.269679   -1.937666   -2.978765
     10          8           0        2.294510   -1.959760   -2.578431
     11          1           0        2.400376   -1.568664   -3.454966
     12          8           0        2.570729    2.953960   -0.502761
     13          1           0        3.511415    2.874298   -0.336160
     14          8           0        1.730016    0.896030    1.086222
     15          8           0       -1.529401    0.938637    1.211776
     16          8           0       -2.294824    3.188483   -0.098194
     17          1           0       -1.823145    3.927672    0.281342
     18          8           0       -0.019374   -1.106191    2.227680
     19         14           0       -1.507883   -0.671179    1.605305
     20          8           0        2.838371   -1.145855    2.713349
     21          1           0        2.970147   -1.968974    3.187451
     22          8           0       -2.590659   -0.859601    2.831706
     23          1           0       -3.331924   -0.257516    2.870098
     24          8           0       -1.718994   -1.553531    0.269054
     25          8           0        1.935590   -1.696885    0.027157
     26         13           0        1.533726   -0.792952    1.458670
     27         13           0       -1.874596   -0.813176   -1.321655
     28          1           0       -2.339927   -2.919440   -2.285208
     29          1           0        3.505273   -0.506216    2.979269
 ---------------------------------------------------------------------
 Rotational constants (GHZ):      0.2621673      0.2093466      0.2049497
 Standard basis: 6-311G(d,p) (5D, 7F)
 There are   495 symmetry adapted cartesian basis functions of A   symmetry.
 There are   474 symmetry adapted basis functions of A   symmetry.
   474 basis functions,   820 primitive gaussians,   495 cartesian basis functions
   105 alpha electrons      105 beta electrons
       nuclear repulsion energy      3292.7311163732 Hartrees.
 NAtoms=   29 NActive=   29 NUniq=   29 SFac= 1.00D+00 NAtFMM=   60 NAOKFM=F Big=F
 Integral buffers will be    131072 words long.
 Raffenetti 2 integral format.
 Two-electron integral symmetry is turned on.
 ------------------------------------------------------------------------------
 Polarizable Continuum Model (PCM)
 =================================
 Model                : C-PCM.
 Atomic radii         : UFF (Universal Force Field).
 Polarization charges : Total charges.
 Charge compensation  : None.
 Solution method      : On-the-fly selection.
 Cavity type          : Scaled VdW (van der Waals Surface) (Alpha=1.100).
 Cavity algorithm     : GePol (No added spheres)
                        Default sphere list used, NSphG=   29.
                        Lebedev-Laikov grids with approx.  5.0 points / Ang**2.
                        Smoothing algorithm: Karplus/York (Gamma=1.0000).
                        Polarization charges: spherical gaussians, with
                                              point-specific exponents (IZeta= 3).
                        Self-potential: point-specific (ISelfS= 7).
                        Self-field    : sphere-specific E.n sum rule (ISelfD= 2).
 1st derivatives      : Analytical E(r).r(x)/FMM algorithm (CHGder, D1EAlg=3).
                        Cavity 1st derivative terms included.
 Solvent              : Water, Eps=  78.355300 Eps(inf)=   1.777849
 ------------------------------------------------------------------------------
 One-electron integrals computed using PRISM.
 NBasis=   474 RedAO= T EigKep=  3.64D-03  NBF=   474
 NBsUse=   474 1.00D-06 EigRej= -1.00D+00 NBFU=   474
 ExpMin= 4.14D-02 ExpMax= 6.94D+04 ExpMxC= 2.33D+03 IAcc=2 IRadAn=         4 AccDes= 0.00D+00
 Harris functional with IExCor= 1009 and IRadAn=       4 diagonalized for initial guess.
 HarFok:  IExCor= 1009 AccDes= 0.00D+00 IRadAn=         4 IDoV= 1 UseB2=F ITyADJ=14
 ICtDFT=  3500011 ScaDFX=  1.000000  1.000000  1.000000  1.000000
 FoFCou: FMM=F IPFlag=           0 FMFlag=      100000 FMFlg1=           0
         NFxFlg=           0 DoJE=T BraDBF=F KetDBF=T FulRan=T
         wScrn=  0.000000 ICntrl=     500 IOpCl=  0 I1Cent=   200000004 NGrid=           0
         NMat0=    1 NMatS0=      1 NMatT0=    0 NMatD0=    1 NMtDS0=    0 NMtDT0=    0
 Petite list used in FoFCou.
 Keep R1 ints in memory in canonical form, NReq=6398396566.
 Requested convergence on RMS density matrix=1.00D-08 within 128 cycles.
 Requested convergence on MAX density matrix=1.00D-06.
 Requested convergence on             energy=1.00D-06.
 No special actions if energy rises.
 Inv3:  Mode=1 IEnd=    21756747.
 Iteration    1 A*A^-1 deviation from unit magnitude is 1.01D-14 for   2174.
 Iteration    1 A*A^-1 deviation from orthogonality  is 5.11D-15 for   2084    686.
 Iteration    1 A^-1*A deviation from unit magnitude is 9.99D-15 for   2174.
 Iteration    1 A^-1*A deviation from orthogonality  is 6.55D-15 for   2662   1020.
 Error on total polarization charges =  0.00877
 SCF Done:  E(RM062X) =  -2777.20266398     A.U. after   11 cycles
            NFock= 11  Conv=0.92D-08     -V/T= 2.0020

 **********************************************************************

            Population analysis using the SCF density.

 **********************************************************************

 Orbital symmetries:
       Occupied  (A) (A) (A) (A) (A) (A) (A) (A) (A) (A) (A) (A)
                 (A) (A) (A) (A) (A) (A) (A) (A) (A) (A) (A) (A)
                 (A) (A) (A) (A) (A) (A) (A) (A) (A) (A) (A) (A)
                 (A) (A) (A) (A) (A) (A) (A) (A) (A) (A) (A) (A)
                 (A) (A) (A) (A) (A) (A) (A) (A) (A) (A) (A) (A)
                 (A) (A) (A) (A) (A) (A) (A) (A) (A) (A) (A) (A)
                 (A) (A) (A) (A) (A) (A) (A) (A) (A) (A) (A) (A)
                 (A) (A) (A) (A) (A) (A) (A) (A) (A) (A) (A) (A)
                 (A) (A) (A) (A) (A) (A) (A) (A) (A)
       Virtual   (A) (A) (A) (A) (A) (A) (A) (A) (A) (A) (A) (A)
                 (A) (A) (A) (A) (A) (A) (A) (A) (A) (A) (A) (A)
                 (A) (A) (A) (A) (A) (A) (A) (A) (A) (A) (A) (A)
                 (A) (A) (A) (A) (A) (A) (A) (A) (A) (A) (A) (A)
                 (A) (A) (A) (A) (A) (A) (A) (A) (A) (A) (A) (A)
                 (A) (A) (A) (A) (A) (A) (A) (A) (A) (A) (A) (A)
                 (A) (A) (A) (A) (A) (A) (A) (A) (A) (A) (A) (A)
                 (A) (A) (A) (A) (A) (A) (A) (A) (A) (A) (A) (A)
                 (A) (A) (A) (A) (A) (A) (A) (A) (A) (A) (A) (A)
                 (A) (A) (A) (A) (A) (A) (A) (A) (A) (A) (A) (A)
                 (A) (A) (A) (A) (A) (A) (A) (A) (A) (A) (A) (A)
                 (A) (A) (A) (A) (A) (A) (A) (A) (A) (A) (A) (A)
                 (A) (A) (A) (A) (A) (A) (A) (A) (A) (A) (A) (A)
                 (A) (A) (A) (A) (A) (A) (A) (A) (A) (A) (A) (A)
                 (A) (A) (A) (A) (A) (A) (A) (A) (A) (A) (A) (A)
                 (A) (A) (A) (A) (A) (A) (A) (A) (A) (A) (A) (A)
                 (A) (A) (A) (A) (A) (A) (A) (A) (A) (A) (A) (A)
                 (A) (A) (A) (A) (A) (A) (A) (A) (A) (A) (A) (A)
                 (A) (A) (A) (A) (A) (A) (A) (A) (A) (A) (A) (A)
                 (A) (A) (A) (A) (A) (A) (A) (A) (A) (A) (A) (A)
                 (A) (A) (A) (A) (A) (A) (A) (A) (A) (A) (A) (A)
                 (A) (A) (A) (A) (A) (A) (A) (A) (A) (A) (A) (A)
                 (A) (A) (A) (A) (A) (A) (A) (A) (A) (A) (A) (A)
                 (A) (A) (A) (A) (A) (A) (A) (A) (A) (A) (A) (A)
                 (A) (A) (A) (A) (A) (A) (A) (A) (A) (A) (A) (A)
                 (A) (A) (A) (A) (A) (A) (A) (A) (A) (A) (A) (A)
                 (A) (A) (A) (A) (A) (A) (A) (A) (A) (A) (A) (A)
                 (A) (A) (A) (A) (A) (A) (A) (A) (A) (A) (A) (A)
                 (A) (A) (A) (A) (A) (A) (A) (A) (A) (A) (A) (A)
                 (A) (A) (A) (A) (A) (A) (A) (A) (A) (A) (A) (A)
                 (A) (A) (A) (A) (A) (A) (A) (A) (A)
 The electronic state is 1-A.
 Alpha  occ. eigenvalues --  -67.06256 -67.06077 -67.04693 -67.04686 -56.86440
 Alpha  occ. eigenvalues --  -56.84393 -19.74324 -19.72172 -19.62027 -19.61912
 Alpha  occ. eigenvalues --  -19.61760 -19.61170 -19.61120 -19.60778 -19.60303
 Alpha  occ. eigenvalues --  -19.60300 -19.59032 -19.58178 -19.57908 -19.56898
 Alpha  occ. eigenvalues --  -19.56866  -5.60287  -5.60018  -5.58655  -5.58599
 Alpha  occ. eigenvalues --   -4.39390  -4.37404  -3.91632  -3.91606  -3.91571
 Alpha  occ. eigenvalues --   -3.91370  -3.91324  -3.91307  -3.90030  -3.90012
 Alpha  occ. eigenvalues --   -3.89962  -3.89908  -3.89868  -3.89852  -2.90017
 Alpha  occ. eigenvalues --   -2.89843  -2.89819  -2.88095  -2.87894  -2.87794
 Alpha  occ. eigenvalues --   -1.27145  -1.24041  -1.15527  -1.14214  -1.13048
 Alpha  occ. eigenvalues --   -1.12854  -1.11116  -1.10568  -1.09338  -1.08842
 Alpha  occ. eigenvalues --   -1.07377  -1.06944  -1.06201  -1.04468  -1.03101
 Alpha  occ. eigenvalues --   -0.73890  -0.71675  -0.67968  -0.66015  -0.65142
 Alpha  occ. eigenvalues --   -0.64682  -0.62970  -0.62367  -0.58909  -0.57969
 Alpha  occ. eigenvalues --   -0.57607  -0.56037  -0.54606  -0.53797  -0.53356
 Alpha  occ. eigenvalues --   -0.52361  -0.51670  -0.50998  -0.50625  -0.49610
 Alpha  occ. eigenvalues --   -0.48758  -0.47346  -0.47286  -0.46964  -0.45806
 Alpha  occ. eigenvalues --   -0.45351  -0.44906  -0.44426  -0.42828  -0.42495
 Alpha  occ. eigenvalues --   -0.42427  -0.41645  -0.41291  -0.40886  -0.40725
 Alpha  occ. eigenvalues --   -0.40215  -0.40000  -0.39439  -0.39036  -0.38946
 Alpha  occ. eigenvalues --   -0.38272  -0.37562  -0.36788  -0.36509  -0.33397
 Alpha virt. eigenvalues --   -0.00469   0.01550   0.04602   0.04782   0.05956
 Alpha virt. eigenvalues --    0.06351   0.07289   0.08813   0.09627   0.10100
 Alpha virt. eigenvalues --    0.11198   0.12461   0.13205   0.13846   0.14541
 Alpha virt. eigenvalues --    0.14907   0.15811   0.16109   0.16817   0.17397
 Alpha virt. eigenvalues --    0.17525   0.18149   0.19182   0.19203   0.20014
 Alpha virt. eigenvalues --    0.20623   0.20912   0.21349   0.22011   0.22049
 Alpha virt. eigenvalues --    0.22471   0.23357   0.24196   0.24595   0.25451
 Alpha virt. eigenvalues --    0.27585   0.27629   0.28567   0.28665   0.30017
 Alpha virt. eigenvalues --    0.31449   0.31891   0.32930   0.33597   0.34331
 Alpha virt. eigenvalues --    0.34608   0.35572   0.36768   0.37156   0.37745
 Alpha virt. eigenvalues --    0.39556   0.39883   0.43088   0.43566   0.44119
 Alpha virt. eigenvalues --    0.45137   0.45180   0.45935   0.46477   0.47849
 Alpha virt. eigenvalues --    0.48463   0.50801   0.54673   0.57000   0.58452
 Alpha virt. eigenvalues --    0.60063   0.62314   0.63059   0.63734   0.64707
 Alpha virt. eigenvalues --    0.66501   0.66617   0.67324   0.68351   0.69544
 Alpha virt. eigenvalues --    0.70618   0.72218   0.72382   0.72858   0.76064
 Alpha virt. eigenvalues --    0.76438   0.78276   0.80401   0.81424   0.82652
 Alpha virt. eigenvalues --    0.83604   0.85580   0.86464   0.87307   0.87824
 Alpha virt. eigenvalues --    0.89318   0.90013   0.90122   0.91345   0.92036
 Alpha virt. eigenvalues --    0.92281   0.93590   0.94214   0.94872   0.95155
 Alpha virt. eigenvalues --    0.95367   0.97014   0.97570   0.97966   0.98757
 Alpha virt. eigenvalues --    0.99500   1.00191   1.00317   1.01070   1.01780
 Alpha virt. eigenvalues --    1.02223   1.03009   1.03610   1.04383   1.04976
 Alpha virt. eigenvalues --    1.05120   1.05954   1.07122   1.07266   1.07686
 Alpha virt. eigenvalues --    1.08997   1.09844   1.10031   1.10599   1.11105
 Alpha virt. eigenvalues --    1.11930   1.12500   1.12940   1.13199   1.14061
 Alpha virt. eigenvalues --    1.14982   1.15291   1.16090   1.16453   1.16598
 Alpha virt. eigenvalues --    1.18379   1.18450   1.19688   1.20492   1.21639
 Alpha virt. eigenvalues --    1.23574   1.23904   1.24321   1.25405   1.25924
 Alpha virt. eigenvalues --    1.26317   1.27718   1.28742   1.30045   1.30973
 Alpha virt. eigenvalues --    1.31595   1.31868   1.33299   1.34008   1.35136
 Alpha virt. eigenvalues --    1.37525   1.38628   1.38777   1.41008   1.41414
 Alpha virt. eigenvalues --    1.44901   1.45337   1.46461   1.47851   1.48297
 Alpha virt. eigenvalues --    1.48652   1.51447   1.52056   1.55908   1.57877
 Alpha virt. eigenvalues --    1.58580   1.60530   1.66849   1.67369   1.69273
 Alpha virt. eigenvalues --    1.70370   1.70975   1.71783   1.73482   1.76280
 Alpha virt. eigenvalues --    1.77531   1.77897   1.80381   1.81881   1.85291
 Alpha virt. eigenvalues --    1.85917   1.87052   1.89475   1.97956   1.98864
 Alpha virt. eigenvalues --    2.04808   2.05402   2.06265   2.06458   2.12796
 Alpha virt. eigenvalues --    2.15252   2.36351   2.41821   2.47197   2.47466
 Alpha virt. eigenvalues --    2.48145   2.48558   2.50628   2.58686   2.85490
 Alpha virt. eigenvalues --    2.86515   2.86996   2.87321   2.87961   2.88702
 Alpha virt. eigenvalues --    2.90351   2.90985   2.91337   2.92128   2.93001
 Alpha virt. eigenvalues --    2.94574   2.95381   2.96250   2.97559   2.98021
 Alpha virt. eigenvalues --    2.99551   2.99851   3.00129   3.01255   3.02072
 Alpha virt. eigenvalues --    3.02847   3.03804   3.04514   3.05128   3.06081
 Alpha virt. eigenvalues --    3.07591   3.08089   3.09046   3.09199   3.09851
 Alpha virt. eigenvalues --    3.10497   3.11688   3.12390   3.12541   3.13176
 Alpha virt. eigenvalues --    3.13391   3.13731   3.14774   3.15704   3.16925
 Alpha virt. eigenvalues --    3.17615   3.18262   3.18675   3.19206   3.19882
 Alpha virt. eigenvalues --    3.20573   3.22972   3.24941   3.26905   3.29015
 Alpha virt. eigenvalues --    3.32491   3.35543   3.35901   3.37111   3.38673
 Alpha virt. eigenvalues --    3.41586   3.42981   3.44958   3.45127   3.47359
 Alpha virt. eigenvalues --    3.48442   3.49357   3.50456   3.51331   3.52679
 Alpha virt. eigenvalues --    3.55947   3.59156   3.60806   3.80353   3.80693
 Alpha virt. eigenvalues --    3.81035   3.81457   3.82015   3.82684   4.65838
 Alpha virt. eigenvalues --    4.69045   4.84987   4.85880   4.90042   4.92339
 Alpha virt. eigenvalues --    4.93420   4.94793   4.96389   4.96978   4.98060
 Alpha virt. eigenvalues --    4.99449   5.00195   5.01197   5.02332   5.03484
 Alpha virt. eigenvalues --    5.04145   5.05480   5.06545   5.07945   5.09279
 Alpha virt. eigenvalues --    5.10365   5.11483   5.13809   5.14478   5.15450
 Alpha virt. eigenvalues --    5.16422   5.17415   5.21152   5.22061   5.25963
 Alpha virt. eigenvalues --    5.26281   5.27060   5.27230   5.30176   5.31282
 Alpha virt. eigenvalues --    5.31778   5.33625   5.34935   5.40415   5.42242
 Alpha virt. eigenvalues --    5.56358   5.57891   5.58393   5.58573   5.65883
 Alpha virt. eigenvalues --    5.69189   5.87080   5.93476   5.95132   5.98284
 Alpha virt. eigenvalues --    8.29685   8.39982   8.41921   8.43081   8.44137
 Alpha virt. eigenvalues --    8.49878  11.55171  11.56775  11.58719  11.60363
 Alpha virt. eigenvalues --   11.61606  11.62852  11.64452  11.65801  11.66714
 Alpha virt. eigenvalues --   11.71294  11.75302  11.79199  49.90808  49.92069
 Alpha virt. eigenvalues --   49.94020  49.95291  49.96077  49.96650  49.97278
 Alpha virt. eigenvalues --   49.97507  49.99614  50.00731  50.02027  50.04785
 Alpha virt. eigenvalues --   50.06135  50.07476  50.08267 120.77005 120.82269
 Alpha virt. eigenvalues --  141.37837 141.45116 141.47598 141.51293
          Condensed to atoms (all electrons):
               1          2          3          4          5          6
     1  Si  11.269129   0.290577  -0.018232  -0.000606   0.363705   0.002437
     2  O    0.290577   8.353700   0.327863  -0.021099  -0.040121  -0.001252
     3  Si  -0.018232   0.327863  11.237838   0.307833   0.011569  -0.011559
     4  O   -0.000606  -0.021099   0.307833   8.342905  -0.002059   0.322964
     5  O    0.363705  -0.040121   0.011569  -0.002059   8.384689   0.011814
     6  Si   0.002437  -0.001252  -0.011559   0.322964   0.011814  11.202928
     7  O   -0.000284   0.000034   0.000766  -0.015339  -0.011134   0.360004
     8  O   -0.000735   0.000000   0.000056   0.000000  -0.002641  -0.001396
     9  H   -0.000136   0.000002   0.000000   0.000003  -0.000494   0.000052
    10  O    0.380936  -0.020018  -0.003512  -0.000002  -0.013573  -0.000001
    11  H   -0.025455  -0.000805  -0.000642   0.000008  -0.002034   0.000027
    12  O   -0.003788  -0.021108   0.395882  -0.019646   0.000000  -0.002289
    13  H   -0.000267  -0.001267  -0.023683  -0.000222   0.000020  -0.000078
    14  O    0.005351  -0.030916   0.370902  -0.026763  -0.000996   0.004375
    15  O   -0.001660  -0.000003   0.004624  -0.023524  -0.001076   0.319882
    16  O    0.000019  -0.000001  -0.002725  -0.028145   0.000002   0.397977
    17  H    0.000039   0.000007  -0.000095  -0.001990   0.000013  -0.023666
    18  O   -0.001570   0.000006  -0.000685   0.000030  -0.000601  -0.001740
    19  Si   0.005968  -0.000896   0.002926  -0.000731   0.010176  -0.017885
    20  O   -0.002607  -0.000002  -0.000184   0.000000   0.000001   0.000023
    21  H    0.000003   0.000000  -0.000100   0.000000   0.000005  -0.000003
    22  O   -0.000001   0.000000  -0.000051  -0.000001  -0.000002  -0.001724
    23  H    0.000026   0.000000  -0.000011   0.000008   0.000008  -0.000188
    24  O    0.003670  -0.000012  -0.001571  -0.000018  -0.075394  -0.001497
    25  O    0.350510  -0.021810  -0.000500  -0.000011  -0.038447  -0.000565
    26  Al  -0.025865   0.008139  -0.031353   0.002938   0.004606  -0.002654
    27  Al  -0.014220   0.003055  -0.004472   0.006317   0.257068  -0.017395
    28  H    0.000067   0.000005   0.000001   0.000000  -0.000221  -0.000072
    29  H    0.000247  -0.000014   0.000195   0.000005   0.000001  -0.000012
               7          8          9         10         11         12
     1  Si  -0.000284  -0.000735  -0.000136   0.380936  -0.025455  -0.003788
     2  O    0.000034   0.000000   0.000002  -0.020018  -0.000805  -0.021108
     3  Si   0.000766   0.000056   0.000000  -0.003512  -0.000642   0.395882
     4  O   -0.015339   0.000000   0.000003  -0.000002   0.000008  -0.019646
     5  O   -0.011134  -0.002641  -0.000494  -0.013573  -0.002034   0.000000
     6  Si   0.360004  -0.001396   0.000052  -0.000001   0.000027  -0.002289
     7  O    8.220343  -0.002107  -0.000788   0.000000   0.000004   0.000000
     8  O   -0.002107   7.723481   0.316276   0.000001   0.000002   0.000000
     9  H   -0.000788   0.316276   0.306755  -0.000007   0.000001   0.000000
    10  O    0.000000   0.000001  -0.000007   8.026401   0.322482   0.000000
    11  H    0.000004   0.000002   0.000001   0.322482   0.373670   0.000000
    12  O    0.000000   0.000000   0.000000   0.000000   0.000000   8.002744
    13  H    0.000001   0.000000   0.000000   0.000005  -0.000004   0.327782
    14  O   -0.000002   0.000000   0.000000  -0.000006   0.000018  -0.019873
    15  O   -0.040417   0.000003  -0.000003   0.000000   0.000000  -0.000002
    16  O   -0.020658   0.000000   0.000001   0.000000   0.000000   0.000002
    17  H    0.000271   0.000000   0.000000   0.000000   0.000000   0.000077
    18  O   -0.000003   0.000000   0.000000   0.000000   0.000000   0.000000
    19  Si   0.004190  -0.001254  -0.000001  -0.000049   0.000025  -0.000007
    20  O    0.000000   0.000000   0.000000   0.000000   0.000000   0.000000
    21  H    0.000000   0.000000   0.000000   0.000001   0.000000   0.000000
    22  O   -0.000020   0.000000   0.000000   0.000000   0.000000   0.000000
    23  H   -0.000068   0.000002   0.000000   0.000000   0.000000   0.000000
    24  O   -0.009835  -0.010453   0.000021  -0.000003   0.000006   0.000000
    25  O   -0.000001   0.000000   0.000002  -0.020425   0.000143  -0.000005
    26  Al   0.000302  -0.000108   0.000004  -0.001816   0.000072  -0.002250
    27  Al   0.322454   0.173210  -0.010872  -0.002071  -0.000319  -0.000156
    28  H   -0.000017   0.325829  -0.010236  -0.000020  -0.000005   0.000000
    29  H    0.000000   0.000000   0.000000   0.000004   0.000000  -0.000007
              13         14         15         16         17         18
     1  Si  -0.000267   0.005351  -0.001660   0.000019   0.000039  -0.001570
     2  O   -0.001267  -0.030916  -0.000003  -0.000001   0.000007   0.000006
     3  Si  -0.023683   0.370902   0.004624  -0.002725  -0.000095  -0.000685
     4  O   -0.000222  -0.026763  -0.023524  -0.028145  -0.001990   0.000030
     5  O    0.000020  -0.000996  -0.001076   0.000002   0.000013  -0.000601
     6  Si  -0.000078   0.004375   0.319882   0.397977  -0.023666  -0.001740
     7  O    0.000001  -0.000002  -0.040417  -0.020658   0.000271  -0.000003
     8  O    0.000000   0.000000   0.000003   0.000000   0.000000   0.000000
     9  H    0.000000   0.000000  -0.000003   0.000001   0.000000   0.000000
    10  O    0.000005  -0.000006   0.000000   0.000000   0.000000   0.000000
    11  H   -0.000004   0.000018   0.000000   0.000000   0.000000   0.000000
    12  O    0.327782  -0.019873  -0.000002   0.000002   0.000077   0.000000
    13  H    0.363974  -0.001758   0.000005  -0.000003   0.000000   0.000002
    14  O   -0.001758   8.276522  -0.000666  -0.000004   0.000003  -0.010016
    15  O    0.000005  -0.000666   8.377583  -0.018130  -0.001715  -0.019178
    16  O   -0.000003  -0.000004  -0.018130   8.001491   0.326280   0.000000
    17  H    0.000000   0.000003  -0.001715   0.326280   0.368490   0.000003
    18  O    0.000002  -0.010016  -0.019178   0.000000   0.000003   8.277559
    19  Si  -0.000005   0.004340   0.277301  -0.003675  -0.000123   0.348368
    20  O   -0.000002  -0.006621   0.000000   0.000000   0.000000  -0.006373
    21  H    0.000001  -0.000269   0.000004   0.000000   0.000000  -0.001233
    22  O    0.000000  -0.000001  -0.025738   0.000002  -0.000001  -0.022488
    23  H    0.000000   0.000003   0.000219   0.000005  -0.000003  -0.000001
    24  O    0.000000  -0.000013  -0.029216  -0.000004   0.000000  -0.030908
    25  O    0.000005  -0.015333   0.000000   0.000000   0.000000  -0.006433
    26  Al  -0.000278   0.285613   0.010799  -0.000302  -0.000188   0.333035
    27  Al   0.000039  -0.000882   0.010844  -0.000575   0.000047  -0.001352
    28  H    0.000000   0.000000  -0.000002   0.000000   0.000000   0.000011
    29  H   -0.000014   0.001315  -0.000001   0.000000   0.000000  -0.000400
              19         20         21         22         23         24
     1  Si   0.005968  -0.002607   0.000003  -0.000001   0.000026   0.003670
     2  O   -0.000896  -0.000002   0.000000   0.000000   0.000000  -0.000012
     3  Si   0.002926  -0.000184  -0.000100  -0.000051  -0.000011  -0.001571
     4  O   -0.000731   0.000000   0.000000  -0.000001   0.000008  -0.000018
     5  O    0.010176   0.000001   0.000005  -0.000002   0.000008  -0.075394
     6  Si  -0.017885   0.000023  -0.000003  -0.001724  -0.000188  -0.001497
     7  O    0.004190   0.000000   0.000000  -0.000020  -0.000068  -0.009835
     8  O   -0.001254   0.000000   0.000000   0.000000   0.000002  -0.010453
     9  H   -0.000001   0.000000   0.000000   0.000000   0.000000   0.000021
    10  O   -0.000049   0.000000   0.000001   0.000000   0.000000  -0.000003
    11  H    0.000025   0.000000   0.000000   0.000000   0.000000   0.000006
    12  O   -0.000007   0.000000   0.000000   0.000000   0.000000   0.000000
    13  H   -0.000005  -0.000002   0.000001   0.000000   0.000000   0.000000
    14  O    0.004340  -0.006621  -0.000269  -0.000001   0.000003  -0.000013
    15  O    0.277301   0.000000   0.000004  -0.025738   0.000219  -0.029216
    16  O   -0.003675   0.000000   0.000000   0.000002   0.000005  -0.000004
    17  H   -0.000123   0.000000   0.000000  -0.000001  -0.000003   0.000000
    18  O    0.348368  -0.006373  -0.001233  -0.022488  -0.000001  -0.030908
    19  Si  11.281638  -0.001971   0.000014   0.376959  -0.027869   0.375318
    20  O   -0.001971   7.773546   0.324107   0.000000   0.000000   0.000000
    21  H    0.000014   0.324107   0.293814   0.000002   0.000000   0.000003
    22  O    0.376959   0.000000   0.000002   8.033583   0.325652  -0.016304
    23  H   -0.027869   0.000000   0.000000   0.325652   0.374427  -0.001767
    24  O    0.375318   0.000000   0.000003  -0.016304  -0.001767   8.302761
    25  O   -0.000205  -0.006840  -0.000523   0.000000   0.000000  -0.000002
    26  Al  -0.011973   0.164981  -0.012261  -0.002291   0.000165   0.002908
    27  Al  -0.033087   0.000046  -0.000029  -0.002613  -0.000693   0.307486
    28  H    0.000425   0.000000   0.000000   0.000010   0.000000  -0.000443
    29  H    0.000093   0.323505  -0.008947   0.000001   0.000000   0.000001
              25         26         27         28         29
     1  Si   0.350510  -0.025865  -0.014220   0.000067   0.000247
     2  O   -0.021810   0.008139   0.003055   0.000005  -0.000014
     3  Si  -0.000500  -0.031353  -0.004472   0.000001   0.000195
     4  O   -0.000011   0.002938   0.006317   0.000000   0.000005
     5  O   -0.038447   0.004606   0.257068  -0.000221   0.000001
     6  Si  -0.000565  -0.002654  -0.017395  -0.000072  -0.000012
     7  O   -0.000001   0.000302   0.322454  -0.000017   0.000000
     8  O    0.000000  -0.000108   0.173210   0.325829   0.000000
     9  H    0.000002   0.000004  -0.010872  -0.010236   0.000000
    10  O   -0.020425  -0.001816  -0.002071  -0.000020   0.000004
    11  H    0.000143   0.000072  -0.000319  -0.000005   0.000000
    12  O   -0.000005  -0.002250  -0.000156   0.000000  -0.000007
    13  H    0.000005  -0.000278   0.000039   0.000000  -0.000014
    14  O   -0.015333   0.285613  -0.000882   0.000000   0.001315
    15  O    0.000000   0.010799   0.010844  -0.000002  -0.000001
    16  O    0.000000  -0.000302  -0.000575   0.000000   0.000000
    17  H    0.000000  -0.000188   0.000047   0.000000   0.000000
    18  O   -0.006433   0.333035  -0.001352   0.000011  -0.000400
    19  Si  -0.000205  -0.011973  -0.033087   0.000425   0.000093
    20  O   -0.006840   0.164981   0.000046   0.000000   0.323505
    21  H   -0.000523  -0.012261  -0.000029   0.000000  -0.008947
    22  O    0.000000  -0.002291  -0.002613   0.000010   0.000001
    23  H    0.000000   0.000165  -0.000693   0.000000   0.000000
    24  O   -0.000002   0.002908   0.307486  -0.000443   0.000001
    25  O    8.264652   0.325451   0.002706   0.000010  -0.001002
    26  Al   0.325451  10.729831  -0.011350   0.000045  -0.014485
    27  Al   0.002706  -0.011350  10.716669  -0.010473   0.000036
    28  H    0.000010   0.000045  -0.010473   0.300002   0.000000
    29  H   -0.001002  -0.014485   0.000036   0.000000   0.294705
 Mulliken charges:
               1
     1  Si   1.422741
     2  O   -0.824066
     3  Si   1.438919
     4  O   -0.842854
     5  O   -0.854884
     6  Si   1.461495
     7  O   -0.807695
     8  O   -0.520165
     9  H    0.399417
    10  O   -0.668327
    11  H    0.332806
    12  O   -0.657355
    13  H    0.335748
    14  O   -0.834322
    15  O   -0.839932
    16  O   -0.651556
    17  H    0.332553
    18  O   -0.856032
    19  Si   1.411989
    20  O   -0.561609
    21  H    0.405409
    22  O   -0.664975
    23  H    0.330083
    24  O   -0.814736
    25  O   -0.831377
    26  Al   1.248284
    27  Al   1.310581
    28  H    0.395085
    29  H    0.404775
 Sum of Mulliken charges =   0.00000
 Mulliken charges with hydrogens summed into heavy atoms:
               1
     1  Si   1.422741
     2  O   -0.824066
     3  Si   1.438919
     4  O   -0.842854
     5  O   -0.854884
     6  Si   1.461495
     7  O   -0.807695
     8  O    0.274337
    10  O   -0.335520
    12  O   -0.321607
    14  O   -0.834322
    15  O   -0.839932
    16  O   -0.319003
    18  O   -0.856032
    19  Si   1.411989
    20  O    0.248575
    22  O   -0.334892
    24  O   -0.814736
    25  O   -0.831377
    26  Al   1.248284
    27  Al   1.310581
 Electronic spatial extent (au):  <R**2>=           6635.3311
 Charge=              0.0000 electrons
 Dipole moment (field-independent basis, Debye):
    X=              1.5816    Y=             -5.8226    Z=             -3.1275  Tot=              6.7960
 Quadrupole moment (field-independent basis, Debye-Ang):
   XX=           -109.6305   YY=           -154.1172   ZZ=           -114.0290
   XY=             13.5266   XZ=             51.1294   YZ=             20.4617
 Traceless Quadrupole moment (field-independent basis, Debye-Ang):
   XX=             16.2951   YY=            -28.1916   ZZ=             11.8965
   XY=             13.5266   XZ=             51.1294   YZ=             20.4617
 Octapole moment (field-independent basis, Debye-Ang**2):
  XXX=             66.6711  YYY=            -30.4110  ZZZ=            -69.1746  XYY=            -22.9940
  XXY=            -51.1798  XXZ=             45.8681  XZZ=             33.7986  YZZ=            -85.3720
  YYZ=             -2.1973  XYZ=           -110.5097
 Hexadecapole moment (field-independent basis, Debye-Ang**3):
 XXXX=          -2662.6574 YYYY=          -2168.2868 ZZZZ=          -1688.4997 XXXY=            254.2146
 XXXZ=            489.4511 YYYX=             76.4126 YYYZ=            150.7633 ZZZX=            490.4138
 ZZZY=            163.6474 XXYY=           -905.5082 XXZZ=           -369.0903 YYZZ=           -618.9928
 XXYZ=             84.0269 YYXZ=            235.0776 ZZXY=            -17.4591
 N-N= 3.292731116373D+03 E-N=-1.319591499100D+04  KE= 2.771683524676D+03
 D1PCM: C-PCM CHGder 1st derivatives, ID1Alg=3 FixD1E=F DoIter=F DoCFld=F I1PDM=0.
 Calling FoFJK, ICntrl=      2127 FMM=F ISym2X=0 I1Cent= 0 IOpClX= 0 NMat=1 NMatS=1 NMatT=0.
 ***** Axes restored to original set *****
 -------------------------------------------------------------------
 Center     Atomic                   Forces (Hartrees/Bohr)
 Number     Number              X              Y              Z
 -------------------------------------------------------------------
      1       14          -0.019713934    0.002438628   -0.008877936
      2        8           0.008993015    0.002016601    0.004165856
      3       14          -0.010064360    0.003616867   -0.009995568
      4        8          -0.000517794   -0.001441826    0.000149239
      5        8          -0.001847064   -0.000041654   -0.043633010
      6       14           0.017456362    0.019922315    0.008599552
      7        8          -0.018124454    0.004046536   -0.028039699
      8        8          -0.010297349    0.048508990    0.008605885
      9        1          -0.011824700   -0.001389920   -0.014887924
     10        8          -0.007459552    0.008252146    0.002549478
     11        1          -0.001990647   -0.001308563    0.005690901
     12        8          -0.005902438   -0.001269235    0.000250235
     13        1           0.000690668   -0.001456214    0.000267526
     14        8           0.006705034   -0.000403165    0.006246259
     15        8           0.002849290   -0.000292933    0.010314344
     16        8          -0.004029847   -0.004192019   -0.000793876
     17        1           0.002378493    0.003590188    0.001437541
     18        8          -0.007330799    0.009867874   -0.010212772
     19       14           0.031058243   -0.012422007    0.013035267
     20        8          -0.000469340    0.001648132    0.000382568
     21        1           0.001067373   -0.005835738    0.003699865
     22        8           0.003728008   -0.005701203   -0.001810462
     23        1          -0.002464010    0.002676987   -0.001433486
     24        8          -0.041795701    0.001326148    0.016400694
     25        8           0.010834610   -0.003734815    0.007271723
     26       13          -0.021693187   -0.001296247    0.002982295
     27       13           0.054023829   -0.028956813    0.032092889
     28        1           0.022527466   -0.041566418   -0.005425319
     29        1           0.003212786    0.003397358    0.000967933
 -------------------------------------------------------------------
 Cartesian Forces:  Max     0.054023829 RMS     0.014926210

 GradGradGradGradGradGradGradGradGradGradGradGradGradGradGradGradGradGrad
 Berny optimization.
 FormGI is forming the generalized inverse of G from B-inverse, IUseBI=4.
 Internal  Forces:  Max     0.047251518 RMS     0.007390271
 Search for a local minimum.
 Step number   1 out of a maximum of  174
 All quantities printed in internal units (Hartrees-Bohrs-Radians)
 Mixed Optimization -- RFO/linear search
 Second derivative matrix not updated -- first step.
 ITU=  0
     Eigenvalues ---    0.02503   0.02830   0.02830   0.03585   0.03587
     Eigenvalues ---    0.03720   0.03810   0.03866   0.03873   0.04143
     Eigenvalues ---    0.04535   0.04919   0.04932   0.05278   0.05709
     Eigenvalues ---    0.05906   0.06251   0.07130   0.08429   0.08559
     Eigenvalues ---    0.09739   0.09909   0.11149   0.11533   0.12269
     Eigenvalues ---    0.12486   0.12801   0.13006   0.13409   0.13553
     Eigenvalues ---    0.14006   0.14171   0.14606   0.15245   0.16000
     Eigenvalues ---    0.16000   0.16000   0.16000   0.16000   0.16000
     Eigenvalues ---    0.16000   0.16000   0.16106   0.16236   0.17074
     Eigenvalues ---    0.19797   0.20728   0.21366   0.21454   0.21669
     Eigenvalues ---    0.22927   0.25874   0.27111   0.28197   0.29168
     Eigenvalues ---    0.30003   0.34037   0.37427   0.38132   0.38739
     Eigenvalues ---    0.39265   0.40074   0.41630   0.41764   0.42758
     Eigenvalues ---    0.43137   0.44205   0.44673   0.44876   0.44880
     Eigenvalues ---    0.45560   0.48084   0.49758   0.54276   0.55138
     Eigenvalues ---    0.55691   0.55767   0.56398   0.56459   0.56686
     Eigenvalues ---    0.62443
 RFO step:  Lambda=-3.92170376D-02 EMin= 2.50308903D-02
 Linear search not attempted -- first point.
 Maximum step size (   0.300) exceeded in Quadratic search.
    -- Step size scaled by   0.861
 Iteration  1 RMS(Cart)=  0.03826806 RMS(Int)=  0.00197078
 Iteration  2 RMS(Cart)=  0.00400722 RMS(Int)=  0.00091707
 Iteration  3 RMS(Cart)=  0.00000495 RMS(Int)=  0.00091706
 Iteration  4 RMS(Cart)=  0.00000001 RMS(Int)=  0.00091706
 Variable       Old X    -DE/DX   Delta X   Delta X   Delta X     New X
                                 (Linear)    (Quad)   (Total)
    R1        3.14800   0.00227   0.00000   0.00434   0.00469   3.15269
    R2        3.07499  -0.01618   0.00000  -0.02553  -0.02383   3.05116
    R3        3.13097  -0.01390   0.00000  -0.02628  -0.02628   3.10470
    R4        3.05515   0.01422   0.00000   0.02560   0.02554   3.08068
    R5        3.12725   0.00029   0.00000  -0.00205  -0.00238   3.12486
    R6        3.12820  -0.00994   0.00000  -0.01860  -0.01911   3.10909
    R7        3.09910  -0.00526   0.00000  -0.00941  -0.00941   3.08969
    R8        3.04041   0.00794   0.00000   0.01176   0.01181   3.05222
    R9        3.12287  -0.00988   0.00000  -0.01885  -0.01956   3.10331
   R10        3.38468  -0.01693   0.00000  -0.04379  -0.04206   3.34262
   R11        3.01673   0.02162   0.00000   0.03558   0.03565   3.05238
   R12        3.08115   0.01329   0.00000   0.02424   0.02423   3.10538
   R13        3.09115   0.00032   0.00000   0.00057   0.00057   3.09172
   R14        3.19577   0.01652   0.00000   0.03606   0.03631   3.23209
   R15        1.80363   0.01766   0.00000   0.02510   0.02510   1.82873
   R16        3.53161   0.00092   0.00000   0.00314   0.00314   3.53475
   R17        1.75758   0.04725   0.00000   0.06131   0.06131   1.81889
   R18        1.82481  -0.00592   0.00000  -0.00875  -0.00875   1.81606
   R19        1.81157   0.00084   0.00000   0.00121   0.00121   1.81278
   R20        3.28938   0.00214   0.00000   0.00537   0.00537   3.29474
   R21        3.13195   0.00701   0.00000   0.01279   0.01262   3.14457
   R22        1.80558   0.00452   0.00000   0.00645   0.00645   1.81203
   R23        3.15773  -0.02136   0.00000  -0.04468  -0.04553   3.11220
   R24        3.32807  -0.00985   0.00000  -0.02785  -0.02891   3.29916
   R25        3.11201  -0.00290   0.00000  -0.00531  -0.00531   3.10670
   R26        3.05217   0.00248   0.00000   0.00092   0.00077   3.05294
   R27        1.81223   0.00698   0.00000   0.01008   0.01008   1.82231
   R28        3.48492   0.00628   0.00000   0.02016   0.02016   3.50508
   R29        1.81710   0.00476   0.00000   0.00695   0.00695   1.82404
   R30        1.80610   0.00354   0.00000   0.00505   0.00505   1.81115
   R31        3.32865   0.01181   0.00000   0.02735   0.02754   3.35619
   R32        3.28824   0.00493   0.00000   0.01488   0.01435   3.30260
    A1        1.78639   0.00554   0.00000   0.02738   0.02671   1.81310
    A2        1.90970  -0.00077   0.00000  -0.00883  -0.00981   1.89989
    A3        1.94355  -0.00388   0.00000  -0.02058  -0.02076   1.92279
    A4        2.11305  -0.01062   0.00000  -0.04802  -0.04794   2.06512
    A5        1.82871   0.00792   0.00000   0.04932   0.05059   1.87930
    A6        1.87959   0.00184   0.00000   0.00142   0.00157   1.88116
    A7        2.11463  -0.00020   0.00000   0.00265   0.00232   2.11694
    A8        1.89512   0.00431   0.00000   0.01779   0.01592   1.91104
    A9        1.91766  -0.00136   0.00000  -0.00435  -0.00348   1.91418
   A10        1.89899   0.00131   0.00000   0.00234   0.00228   1.90126
   A11        1.85116  -0.00244   0.00000  -0.01083  -0.01054   1.84062
   A12        1.89974  -0.00081   0.00000   0.00061   0.00159   1.90132
   A13        1.99845  -0.00076   0.00000  -0.00433  -0.00479   1.99366
   A14        2.48192  -0.00488   0.00000  -0.01658  -0.01759   2.46433
   A15        2.02315  -0.00267   0.00000  -0.01266  -0.01390   2.00925
   A16        1.91170   0.00310   0.00000   0.00520   0.00577   1.91747
   A17        1.86044   0.00066   0.00000   0.00354   0.00408   1.86452
   A18        1.82373  -0.00048   0.00000   0.00765   0.00764   1.83137
   A19        1.88629   0.00070   0.00000   0.00020   0.00075   1.88704
   A20        1.96111  -0.00148   0.00000  -0.00446  -0.00490   1.95620
   A21        2.08609  -0.00501   0.00000  -0.01113  -0.01230   2.07379
   A22        2.02127   0.00988   0.00000   0.05000   0.04895   2.07021
   A23        1.87592  -0.00435   0.00000  -0.00582  -0.00752   1.86840
   A24        1.93052   0.00467   0.00000   0.02803   0.02690   1.95741
   A25        2.06495  -0.00296   0.00000  -0.01279  -0.01279   2.05217
   A26        2.07078  -0.00251   0.00000  -0.01084  -0.01084   2.05993
   A27        2.24002   0.00036   0.00000  -0.00434  -0.00436   2.23566
   A28        2.34189   0.00104   0.00000   0.00496   0.00464   2.34653
   A29        2.04221  -0.00002   0.00000  -0.00010  -0.00010   2.04211
   A30        2.18539  -0.00170   0.00000  -0.00554  -0.00698   2.17840
   A31        1.93143  -0.00198   0.00000  -0.00591  -0.00483   1.92659
   A32        1.85399   0.00001   0.00000   0.00117   0.00090   1.85490
   A33        1.90974   0.00104   0.00000  -0.00017  -0.00099   1.90875
   A34        1.85306   0.00282   0.00000   0.01130   0.01129   1.86436
   A35        1.85705   0.00265   0.00000   0.01661   0.01547   1.87252
   A36        2.05746  -0.00460   0.00000  -0.02284  -0.02166   2.03579
   A37        2.21157   0.00058   0.00000   0.00252   0.00252   2.21409
   A38        1.91658   0.00009   0.00000   0.00037   0.00037   1.91696
   A39        2.15498  -0.00067   0.00000  -0.00289  -0.00289   2.15208
   A40        2.05758  -0.00288   0.00000  -0.01244  -0.01244   2.04514
   A41        2.12830   0.00248   0.00000   0.00588   0.00436   2.13266
   A42        2.06079   0.00206   0.00000   0.01558   0.01548   2.07626
   A43        1.94492   0.00313   0.00000   0.00819   0.00899   1.95391
   A44        1.82501  -0.00124   0.00000  -0.00793  -0.00837   1.81664
   A45        1.87757  -0.00319   0.00000  -0.01121  -0.01107   1.86650
   A46        1.86791  -0.00327   0.00000  -0.01526  -0.01487   1.85304
   A47        2.06065   0.00328   0.00000   0.02401   0.02219   2.08284
   A48        1.87226   0.00071   0.00000  -0.00181  -0.00095   1.87131
   A49        1.88177   0.00368   0.00000   0.01285   0.00890   1.89067
   A50        2.05358  -0.00282   0.00000  -0.02419  -0.02852   2.02506
   A51        1.47374   0.02005   0.00000   0.14367   0.14557   1.61931
   A52        2.21914  -0.00878   0.00000  -0.05366  -0.05456   2.16458
   A53        1.95906  -0.00230   0.00000  -0.01252  -0.01335   1.94571
   A54        1.71128   0.00164   0.00000   0.01836   0.01668   1.72796
   A55        3.14159  -0.00972   0.00000  -0.06961  -0.07114   3.07045
   A56        3.14159   0.02466   0.00000   0.17013   0.16730   3.30889
    D1        1.06379   0.00840   0.00000   0.05182   0.05193   1.11571
    D2       -2.95754  -0.00132   0.00000   0.00628   0.00540  -2.95214
    D3       -0.88171  -0.00194   0.00000  -0.01037  -0.01120  -0.89291
    D4       -0.11835   0.00644   0.00000   0.04845   0.04909  -0.06926
    D5        2.53810  -0.00051   0.00000  -0.01536  -0.01655   2.52155
    D6       -2.06627   0.00596   0.00000   0.04023   0.04069  -2.02558
    D7       -2.24689   0.00245   0.00000   0.01928   0.01941  -2.22749
    D8        0.40956  -0.00450   0.00000  -0.04453  -0.04624   0.36333
    D9        2.08838   0.00197   0.00000   0.01106   0.01100   2.09937
   D10        1.91175   0.00251   0.00000   0.02144   0.02244   1.93420
   D11       -1.71498  -0.00444   0.00000  -0.04237  -0.04320  -1.75818
   D12       -0.03616   0.00203   0.00000   0.01322   0.01404  -0.02213
   D13       -0.68833  -0.00145   0.00000  -0.01224  -0.01214  -0.70047
   D14        1.37992  -0.00223   0.00000  -0.01729  -0.01795   1.36197
   D15       -2.80336   0.00259   0.00000   0.01701   0.01756  -2.78581
   D16        0.84860   0.00296   0.00000   0.00245   0.00315   0.85175
   D17       -1.06986  -0.00584   0.00000  -0.04568  -0.04474  -1.11460
   D18        2.94233   0.00088   0.00000  -0.01970  -0.01985   2.92249
   D19       -1.41199   0.00155   0.00000   0.01790   0.01782  -1.39417
   D20        2.85376   0.00279   0.00000   0.02323   0.02342   2.87718
   D21        0.65321   0.00377   0.00000   0.03006   0.03026   0.68347
   D22        1.54546   0.00217   0.00000   0.01564   0.01499   1.56045
   D23       -2.67760   0.00145   0.00000   0.01376   0.01322  -2.66438
   D24       -0.51926  -0.00139   0.00000   0.00238   0.00211  -0.51715
   D25       -1.17482   0.00106   0.00000   0.00646   0.00582  -1.16900
   D26        3.06328  -0.00197   0.00000  -0.00630  -0.00534   3.05795
   D27        0.96810   0.00119   0.00000   0.00303   0.00270   0.97080
   D28       -0.46150  -0.00287   0.00000  -0.02481  -0.02391  -0.48540
   D29        1.60079   0.00259   0.00000  -0.00179  -0.00249   1.59829
   D30       -2.61448  -0.00156   0.00000  -0.01787  -0.01774  -2.63222
   D31       -1.61038  -0.00024   0.00000  -0.00144  -0.00082  -1.61120
   D32        0.44701  -0.00033   0.00000   0.00395   0.00407   0.45108
   D33        2.57285   0.00006   0.00000   0.00367   0.00394   2.57680
   D34        1.26637   0.00211   0.00000   0.02059   0.01975   1.28612
   D35       -0.83909   0.00013   0.00000   0.01600   0.01528  -0.82382
   D36       -2.93089   0.00175   0.00000   0.01706   0.01657  -2.91432
   D37       -1.60698  -0.00077   0.00000  -0.02167  -0.02088  -1.62786
   D38        0.57118  -0.00253   0.00000  -0.02928  -0.02965   0.54153
   D39        2.61198  -0.00271   0.00000  -0.02673  -0.02669   2.58529
   D40       -0.65952  -0.00171   0.00000  -0.00399  -0.00453  -0.66405
   D41       -2.84541   0.00070   0.00000   0.00904   0.00934  -2.83607
   D42        1.43471   0.00166   0.00000   0.00209   0.00233   1.43704
   D43       -0.80470  -0.01610   0.00000  -0.12514  -0.12606  -0.93076
   D44        2.88161  -0.00066   0.00000   0.00414   0.00325   2.88486
   D45        0.78759   0.00733   0.00000   0.03838   0.03878   0.82637
   D46       -1.84299   0.01063   0.00000   0.08063   0.07905  -1.76394
   D47        0.70786  -0.00467   0.00000  -0.05119  -0.05014   0.65771
   D48        2.90579  -0.01265   0.00000  -0.08910  -0.08974   2.81604
   D49        0.29636   0.01606   0.00000   0.13340   0.13260   0.42896
   D50        2.84720   0.00075   0.00000   0.00157   0.00340   2.85061
   D51       -1.23805  -0.00722   0.00000  -0.03633  -0.03620  -1.27425
   D52       -1.82967  -0.00214   0.00000  -0.01744  -0.01702  -1.84669
   D53        2.44157   0.00090   0.00000   0.00101   0.00089   2.44245
   D54        0.45476   0.00202   0.00000   0.01147   0.01031   0.46507
   D55        1.85383   0.00164   0.00000   0.00152   0.00151   1.85534
   D56       -2.42535   0.00399   0.00000   0.01255   0.01290  -2.41245
   D57       -0.18701  -0.00105   0.00000  -0.01516  -0.01392  -0.20093
   D58       -0.91119  -0.00029   0.00000   0.01304   0.01243  -0.89876
   D59       -2.91578  -0.00087   0.00000   0.00836   0.00757  -2.90821
   D60        1.16188   0.00146   0.00000   0.01945   0.01778   1.17966
   D61        0.94966   0.00088   0.00000   0.00966   0.00985   0.95952
   D62        2.93499  -0.00085   0.00000  -0.00420  -0.00396   2.93103
   D63       -1.23619  -0.00032   0.00000  -0.00262  -0.00236  -1.23855
   D64        0.50395  -0.00005   0.00000  -0.00203  -0.00246   0.50149
   D65        2.56069  -0.00096   0.00000  -0.00280  -0.00209   2.55861
   D66       -1.64412   0.00174   0.00000   0.01305   0.01276  -1.63136
   D67        0.03760   0.00922   0.00000   0.08050   0.08014   0.11774
   D68       -2.04964   0.00950   0.00000   0.07811   0.07752  -1.97212
   D69        2.15727   0.00671   0.00000   0.06510   0.06494   2.22221
   D70        3.05233   0.00170   0.00000   0.00418   0.00440   3.05672
   D71        0.98719   0.00024   0.00000   0.00571   0.00487   0.99206
   D72       -1.24030  -0.00217   0.00000  -0.01286  -0.01223  -1.25253
   D73       -0.10165   0.00171   0.00000   0.00435   0.00456  -0.09709
   D74       -2.16678   0.00025   0.00000   0.00587   0.00503  -2.16176
   D75        1.88891  -0.00215   0.00000  -0.01270  -0.01207   1.87685
   D76        1.55014  -0.00221   0.00000  -0.02689  -0.02928   1.52086
   D77       -0.31733  -0.01411   0.00000  -0.09766  -0.09812  -0.41544
   D78       -2.68728  -0.00293   0.00000  -0.03636  -0.03469  -2.72197
   D79       -0.62780  -0.00277   0.00000  -0.00650  -0.00637  -0.63416
   D80        1.59070   0.00131   0.00000   0.01391   0.01402   1.60472
   D81       -2.58273  -0.00020   0.00000   0.00863   0.00868  -2.57404
         Item               Value     Threshold  Converged?
 Maximum Force            0.047252     0.000450     NO 
 RMS     Force            0.007390     0.000300     NO 
 Maximum Displacement     0.300873     0.001800     NO 
 RMS     Displacement     0.036673     0.001200     NO 
 Predicted change in Energy=-2.295472D-02
 GradGradGradGradGradGradGradGradGradGradGradGradGradGradGradGradGradGrad

                          Input orientation:                          
 ---------------------------------------------------------------------
 Center     Atomic      Atomic             Coordinates (Angstroms)
 Number     Number       Type             X           Y           Z
 ---------------------------------------------------------------------
      1         14           0        1.531003   -1.064450   -1.440656
      2          8           0        2.021807    0.527526   -1.530404
      3         14           0        1.619663    1.617895   -0.354059
      4          8           0        0.075790    2.135394   -0.589705
      5          8           0       -0.079087   -0.978838   -1.525700
      6         14           0       -1.473248    1.764929   -0.189624
      7          8           0       -2.242587    0.808343   -1.239427
      8          8           0       -2.864063   -2.156702   -2.148431
      9          1           0       -3.308036   -1.929886   -2.977847
     10          8           0        2.327134   -1.930978   -2.587190
     11          1           0        2.450150   -1.522294   -3.448235
     12          8           0        2.553372    2.952320   -0.497962
     13          1           0        3.492511    2.866400   -0.322291
     14          8           0        1.715716    0.893924    1.086564
     15          8           0       -1.501031    0.941660    1.232306
     16          8           0       -2.289894    3.179600   -0.097326
     17          1           0       -1.822889    3.928218    0.278090
     18          8           0       -0.024690   -1.104118    2.245112
     19         14           0       -1.496025   -0.670174    1.645807
     20          8           0        2.815269   -1.150703    2.718946
     21          1           0        2.949504   -1.977028    3.197580
     22          8           0       -2.576984   -0.834296    2.873537
     23          1           0       -3.308986   -0.216113    2.897874
     24          8           0       -1.758717   -1.562797    0.325120
     25          8           0        1.917246   -1.690525    0.014159
     26         13           0        1.502607   -0.796316    1.457342
     27         13           0       -1.828751   -0.850074   -1.300107
[...]
 73,-0.00000062,0.00000178,0.00017282,0.00000522,0.00004109,0.00189990,
 0.00270948,-0.00256589,-0.00021398,0.00041168,-0.00018605,0.00001941,-
 0.00007087,-0.00002395,0.00074371,-0.00026632,0.00102972,-0.01873131,0
 .00137031,-0.00131191,0.00006068,-0.00001706,0.00003189,-0.00001023,0.
 00000827,-0.00001888,-0.52105663,0.05365664,-0.08851975,0.53515776,0.0
 0001742,0.00005416,-0.00002079,0.00001190,-0.00004703,-0.00001798,-0.0
 0011887,0.00003447,0.00003745,0.00013564,0.00009080,-0.00010838,-0.000
 02756,-0.00001634,0.00004717,0.00004972,-0.00028351,0.00052086,-0.0000
 1836,-0.00006408,-0.00009792,0.00000440,-0.00001065,0.00000583,0.00000
 228,0.00001353,-0.00001151,-0.00000541,-0.00000461,0.00000638,-0.00000
 142,0.00000191,0.00000245,0.00002551,0.00000791,-0.00000564,-0.0000015
 2,-0.00000047,0.00000302,0.00006194,-0.00000440,-0.00003623,0.00126064
 ,0.00008860,-0.00016910,-0.00000903,0.00004719,-0.00003285,0.00000730,
 -0.00000767,0.00000171,-0.00034695,0.00186016,0.00045389,-0.00584165,-
 0.00087472,0.00139342,-0.00002877,-0.00001378,-0.00000779,0.00000426,0
 .00000386,0.00000578,0.06147445,-0.01108413,0.01339658,-0.05597156,0.0
 1030265,0.00028219,-0.00000572,0.00006087,-0.00008347,-0.00001238,-0.0
 0000762,0.00025954,-0.00002478,0.00005740,-0.00026372,-0.00014405,0.00
 013068,-0.00028025,0.00001895,0.00023003,0.00001699,0.00080613,-0.0007
 6624,0.00004637,-0.00020868,0.00033202,0.00006138,0.00005073,0.0001306
 9,-0.00003576,-0.00000043,-0.00000884,-0.00005822,0.00001942,0.0000102
 2,0.00000897,-0.00000147,-0.00000632,-0.00004885,-0.00001630,-0.000007
 37,0.00000076,0.00000023,0.00000093,-0.00001977,0.00009815,-0.00013227
 ,-0.00116801,-0.00081453,0.00016783,0.00007568,-0.00015614,0.00004572,
 -0.00000427,0.00003151,0.00000988,0.00249236,0.00044550,-0.00035828,0.
 02534286,-0.00025028,-0.00569469,0.00012430,-0.00001272,0.00000158,-0.
 00001266,0.00001027,-0.00002032,-0.11810014,0.01526774,-0.03468601,0.0
 9361414,-0.01578632,0.04008121,0.00790696,0.00155864,-0.00318799,-0.00
 106089,-0.00208368,0.00045242,0.00053180,0.00321981,-0.00091036,0.0007
 0067,-0.00078861,0.00031306,-0.00492610,-0.00008446,0.01131208,-0.0018
 1786,0.00156161,-0.00222796,0.00604770,0.00209973,-0.00006806,0.001280
 94,-0.00158860,-0.00537772,0.00084644,0.00023277,0.00114458,-0.0017769
 2,0.00046052,0.00113721,0.00015932,-0.00005513,-0.00027696,-0.00040359
 ,-0.00079247,0.00024737,0.00013996,0.00006821,-0.00003065,-0.00152656,
 -0.00231516,0.00078276,0.00895545,-0.00313719,-0.00100685,0.00037626,-
 0.00055909,0.00034035,-0.00004059,0.00008484,-0.00001475,-0.01269657,-
 0.00803797,-0.02116683,-0.05006178,-0.02700837,-0.03718741,-0.00183220
 ,0.00029116,-0.00060601,0.00026385,-0.00020711,0.00041970,0.00393032,0
 .00361303,0.01239923,0.00190331,-0.00067183,-0.00217106,0.06200719,-0.
 00123216,-0.00187297,-0.00154913,-0.00067765,0.00130503,0.00092087,0.0
 0439442,-0.00020494,-0.00102398,-0.00481013,-0.00253998,0.00162336,0.0
 0392749,0.00409462,-0.00290698,0.00216646,0.01605563,-0.01008675,-0.00
 041204,-0.01144372,0.01356402,-0.00161747,0.00033039,-0.00501237,0.000
 67853,-0.00013013,0.00021410,0.00024352,0.00009157,0.00020429,-0.00005
 818,0.00002082,0.00003427,-0.00092461,-0.00035976,0.00024626,0.0000615
 9,-0.00000797,-0.00000651,-0.00161441,0.00000828,-0.00010811,-0.005013
 21,-0.03628689,-0.01097910,0.00179161,-0.00398359,0.00100844,-0.000118
 52,0.00057640,0.00013235,-0.00303614,0.00561734,-0.00369541,-0.0263253
 2,-0.10823483,-0.10379881,-0.00062634,0.00014991,-0.00014981,0.0001091
 4,-0.00004614,0.00015350,0.00023904,0.00443846,-0.00399960,-0.00086269
 ,-0.00022228,0.00068799,0.03855157,0.16489764,-0.01398298,-0.00241341,
 -0.00522270,0.00233265,0.00292625,0.00158075,-0.00104753,-0.00091263,-
 0.00318439,0.00084078,0.00083300,0.00293808,0.01750805,0.00134175,-0.0
 1275867,-0.00219037,-0.00576880,-0.02056264,0.00198441,0.02261590,-0.0
 0327873,-0.00390847,-0.00410980,-0.01407078,0.00261510,-0.00002680,0.0
 0037437,0.00308176,-0.00048951,-0.00031083,-0.00038804,0.00011951,0.00
 053148,0.00020416,0.00018503,0.00037892,-0.00001508,-0.00001076,-0.000
 04175,-0.00141302,-0.00167203,0.00265267,-0.00207509,-0.01967918,0.008
 89187,0.00012798,0.00096417,0.00252614,-0.00021161,0.00025645,0.000020
 89,-0.02620053,-0.01005664,-0.01518379,-0.03597981,-0.10074024,-0.1942
 0699,-0.00225073,0.00028872,0.00006968,0.00043956,-0.00022059,0.000451
 89,0.00841153,-0.01137561,-0.03008847,-0.00386213,0.00045170,0.0013820
 0,0.02142083,0.08076489,0.44982749,-0.04696668,0.01355665,-0.04203137,
 0.00912311,0.00110934,-0.00112010,-0.00200978,-0.00113340,-0.00174232,
 0.00093650,0.00066396,0.00010671,-0.01173943,0.00231717,-0.02239527,0.
 00022727,-0.00325772,0.00012219,-0.00126710,0.00243795,0.00005243,-0.0
 0177876,-0.00040430,-0.00047913,0.00027277,-0.00010436,-0.00014564,0.0
 0322450,-0.00016190,0.01292629,-0.00037138,0.00051705,0.00062084,0.000
 26596,0.00044343,0.00018206,-0.00005042,-0.00004271,0.00000433,0.00600
 642,-0.00346065,0.00014876,-0.00090986,0.00220732,-0.00022871,-0.00030
 248,0.00080460,0.00001328,0.00000305,-0.00006573,-0.00002563,-0.004690
 52,0.00400049,0.01050931,0.00769205,-0.00300913,-0.00260030,0.00134660
 ,-0.00006826,-0.00546442,-0.00107650,-0.00052030,0.00000909,-0.0018068
 8,0.00006809,0.00115000,0.00015477,-0.00004634,-0.00006163,-0.00489712
 ,0.00018946,0.00163891,0.06047615,0.01364501,-0.05899592,0.06444363,0.
 00229295,-0.02272728,0.02181657,-0.00236013,0.01737371,-0.00172448,0.0
 0472280,-0.00301840,0.00013287,-0.00361314,0.00769985,-0.00218477,-0.0
 0445752,0.00033539,-0.00007533,0.00118504,0.00056925,0.00070298,0.0000
 3950,0.00012456,0.00016343,-0.00003745,-0.00002006,-0.00000410,0.00087
 906,0.00361775,-0.00794701,0.00114929,0.00133632,-0.00067964,-0.001962
 97,-0.00391777,0.00090818,0.00073805,0.00038371,-0.00014309,-0.0001535
 5,-0.02152095,-0.00767688,0.00141356,0.00007964,-0.00050882,0.00090955
 ,-0.00052555,0.00000779,-0.00008895,0.00015215,0.00006018,0.00181148,0
 .00278790,-0.00247146,-0.00341080,-0.00065202,0.00042075,0.00037724,0.
 00161863,0.00013374,-0.00025996,0.00002180,0.00022900,0.00078223,0.000
 12619,-0.00036549,-0.00005901,-0.00004227,-0.00000025,0.00049295,0.000
 78741,0.00054114,-0.02664928,0.14923573,-0.04096660,0.06205883,-0.2523
 9954,-0.00224106,0.02970441,-0.00498404,-0.00149945,-0.00622891,-0.021
 31328,-0.00055439,0.00101124,0.00305994,-0.02512101,0.00427206,-0.0176
 3391,0.00034182,-0.00018122,-0.00342182,-0.00171229,0.00234774,0.00184
 977,-0.00234387,-0.00026312,0.00012955,0.00020111,-0.00016182,-0.00028
 399,0.00479869,-0.00061616,-0.03360903,0.00272698,0.00019627,0.0008775
 5,0.00057940,0.00112825,0.00240618,-0.00010937,-0.00005145,-0.00006639
 ,0.00084600,-0.01733336,0.00605845,0.00186274,-0.00250494,0.00258329,-
 0.00006708,0.00007862,0.00041950,-0.00000373,0.00003218,-0.00000733,0.
 01745966,-0.00730818,-0.01132417,-0.01360937,0.00182834,-0.00585954,-0
 .00412072,-0.00069937,-0.01490844,-0.00222046,-0.00143669,0.00131350,0
 .00297288,0.00002400,-0.00018387,0.00003584,0.00008008,-0.00013931,0.0
 0135834,0.00068231,0.00526479,0.02904626,0.01352463,0.48184399,0.00543
 034,-0.00042300,0.00086257,-0.00201188,0.00025848,-0.00201660,0.006672
 81,-0.00139661,0.00322570,-0.00549454,-0.00054982,-0.00032426,-0.00400
 707,0.00089101,0.00034094,0.00026163,0.00878276,-0.00854649,0.00050663
 ,-0.00150055,0.00321532,0.00034267,0.00057748,0.00125981,-0.00028152,-
 0.00002738,-0.00010943,-0.00017088,0.00002114,0.00004137,0.00004671,-0
 .00008924,0.00004881,0.00016448,0.00032677,-0.00025396,-0.00010205,-0.
 00008311,0.00001428,-0.02592217,-0.03274043,0.00782280,0.00833651,-0.0
 1153953,0.00677189,0.00069346,-0.00218483,0.00101810,-0.00004720,0.000
 30268,0.00006733,-0.15727923,-0.02080561,0.07572337,-0.05587233,0.0045
 6098,-0.00106891,-0.06147955,0.01659492,-0.03581542,0.00846815,0.00058
 812,-0.00300202,0.00924413,0.00021834,-0.00336059,-0.00036263,0.000064
 27,-0.00007583,0.01018696,0.00336609,0.01023629,-0.02271037,0.01310326
 ,0.01861183,0.29467921,-0.00169629,0.01624747,-0.01784092,-0.00084307,
 -0.01486528,-0.01112411,0.00453929,-0.02795363,0.04351181,-0.01046755,
 0.00575783,-0.00626719,0.00371895,-0.00207232,0.00457766,0.00973296,0.
 00092355,0.00122072,-0.00145306,-0.00215218,-0.00126220,0.00036777,-0.
 00007506,0.00003025,-0.00003180,0.00003032,0.00002227,-0.00070471,-0.0
 0092276,0.00480313,-0.00029113,0.00016583,0.00020789,0.00288536,0.0070
 9257,-0.00623794,-0.00155367,-0.00085919,0.00050915,-0.03087427,-0.167
 31712,0.03493241,-0.00322560,-0.00324249,0.00247310,-0.00171338,0.0006
 6789,0.00005372,0.00017694,-0.00027415,-0.00010784,-0.02118904,-0.0209
 6547,0.01321253,-0.00099894,0.00731077,-0.00235486,0.01661736,-0.01747
 179,0.02226743,0.00148758,-0.00055356,0.00387947,0.00110676,-0.0003621
 1,0.00005729,0.00011292,0.00002926,-0.00008721,0.00210466,-0.00109137,
 0.00029837,0.01274536,-0.07323761,-0.07804641,0.01895474,0.29231106,-0
 .00334965,-0.00491283,-0.05522831,-0.00030640,-0.01045104,0.00893506,-
 0.00052769,0.03088831,-0.01186574,0.00546445,-0.00377947,0.00041696,0.
 00974885,0.00146324,0.00877431,-0.00617026,0.00072569,0.00314540,0.002
 46301,-0.00093971,-0.00051771,0.00129056,0.00025329,0.00001347,-0.0001
 3144,0.00007040,0.00016715,-0.00327163,0.00209553,0.00901991,-0.000072
 86,0.00007115,-0.00040749,-0.00197655,-0.00380194,0.00091845,0.0007633
 6,0.00045101,-0.00014949,0.00698489,0.03449648,-0.02764838,-0.00144486
 ,0.00466351,-0.00515373,0.00093160,-0.00035380,-0.00051693,-0.00007999
 ,0.00009193,0.00005927,0.07750210,0.01319904,-0.06122464,0.01142941,-0
 .00316587,0.01138681,-0.03443821,0.02161902,-0.06346218,-0.00591725,0.
 00440414,-0.01030433,-0.00378739,0.00026099,0.00012735,-0.00017153,-0.
 00008179,0.00029735,-0.00030777,-0.00048380,-0.00772028,0.01805082,-0.
 07789422,-0.13299523,-0.05773915,-0.00672612,0.32758130,-0.05554207,-0
 .00122453,-0.00115321,0.00852805,0.01236545,0.00327376,-0.00055206,-0.
 01112939,-0.00557131,-0.00490554,0.00104184,-0.00031829,-0.15095824,0.
 04763370,0.06283140,0.00645948,0.00018955,0.00123057,-0.02276621,0.026
 72811,-0.00125950,-0.06319219,-0.02778289,-0.02929270,-0.00976735,-0.0
 0472710,-0.00599232,0.00877645,-0.00210618,-0.00333469,-0.00096441,0.0
 0050253,0.00163188,0.00089296,0.00241069,0.00032854,-0.00040816,-0.000
 24286,0.00000345,0.00071550,0.00228244,0.00273284,-0.00190434,-0.00125
 649,-0.00105171,-0.00021344,-0.00015943,-0.00015347,0.00010745,-0.0000
 1073,0.00005427,-0.00418789,-0.00070714,0.00044155,0.00527473,0.001295
 01,0.00073839,0.00030880,-0.00018554,0.00134312,0.00021708,0.00008011,
 -0.00013467,-0.00000235,0.00007513,0.00015190,-0.00002845,-0.00003442,
 0.00005333,-0.02340970,-0.00812274,0.02466181,0.00983969,-0.00064820,0
 .01080214,-0.00094016,-0.00188117,-0.00946637,0.29070995,0.00712511,0.
 00898120,0.00342992,0.00184148,-0.00625669,-0.00248237,-0.01141730,0.0
 0115437,-0.00020764,0.01177476,0.00760665,0.00415912,0.04886053,-0.035
 75198,-0.02444295,-0.00516288,-0.04811258,-0.03252383,0.02501971,-0.17
 652125,0.01176037,-0.02578721,-0.03286921,-0.02892003,-0.00395457,0.00
 132904,0.00242545,-0.00238848,0.00016645,0.00025816,0.00028693,-0.0002
 0941,-0.00040342,0.00200373,0.00040301,-0.00036620,-0.00007828,0.00003
 240,-0.00003338,0.00206540,-0.00154687,0.00140811,0.00018032,-0.006490
 90,0.01557121,-0.00280454,0.00965769,0.00429528,-0.00014519,-0.0001096
 7,-0.00040019,-0.00062989,-0.00267518,-0.00092132,0.00136115,0.0158707
 0,-0.00472517,0.00002024,-0.00014941,-0.00002129,0.00000283,-0.0000224
 5,-0.00001028,-0.00024598,-0.00184759,-0.00135265,-0.00010878,0.000115
 58,0.00010262,-0.00763418,-0.03242905,0.04403975,-0.00252174,-0.001491
 86,-0.00263377,-0.00081555,0.00266814,-0.00016877,-0.03318142,0.302367
 37,0.00998483,0.00364523,0.00970825,-0.00244576,-0.00441686,-0.0033065
 7,-0.00312269,0.00011476,0.00351319,0.00204876,0.00121551,-0.00199370,
 0.06427842,-0.02453266,-0.04904297,0.00009417,-0.01982659,0.00818936,-
 0.00173662,0.01309188,-0.02022137,-0.02902659,-0.03082109,-0.04698933,
 -0.00373425,0.00344720,0.00464850,-0.00308286,0.00019545,0.00057935,0.
 00030246,-0.00008534,-0.00041492,0.00041042,-0.00003419,-0.00048887,0.
 00000083,0.00002967,0.00003234,0.00203280,0.00115706,-0.00130998,0.000
 31713,0.01534680,0.00066916,-0.00101177,0.00124531,-0.00154020,0.00020
 279,-0.00045392,-0.00006698,0.01067610,0.00163269,0.00947701,-0.005227
 98,-0.01725227,-0.05455476,0.00132834,-0.00021462,0.00011157,-0.000236
 70,0.00011881,-0.00029212,-0.00364662,0.00113363,0.00983242,0.00176619
 ,-0.00002933,-0.00111725,0.02357690,0.04355908,-0.17087228,0.00038655,
 -0.00136357,-0.00711360,-0.00959503,0.00007839,0.00089106,-0.04939599,
 0.01873122,0.31884451,-0.00138719,-0.00024638,-0.00031683,0.00023054,0
 .00052605,0.00017040,0.00024680,-0.00027216,-0.00020009,-0.00036442,-0
 .00012436,-0.00006304,0.00266058,0.00145706,0.00173497,0.00014901,0.00
 067733,0.00056176,-0.00095614,-0.00180361,-0.00064459,-0.09226966,0.05
 234473,0.07989239,-0.00697942,0.02630411,0.03269667,0.00030530,-0.0000
 4020,-0.00007740,-0.00003434,0.00000576,0.00005178,-0.00002139,0.00005
 148,0.00002753,-0.00000801,-0.00000640,0.00000129,-0.00006027,0.000051
 49,0.00006675,-0.00002952,-0.00021921,-0.00023011,0.00005695,-0.000210
 34,-0.00007899,0.00001075,0.00001077,0.00000163,-0.00034696,-0.0000440
 3,-0.00019182,0.00012774,0.00045996,0.00084073,-0.00002297,0.00000479,
 0.00002991,0.00001071,0.00000045,0.00000434,0.00009315,-0.00003194,-0.
 00021966,-0.00003535,-0.00000099,0.00001706,-0.00106589,-0.00035182,-0
 .00217372,0.00026219,0.00000955,0.00046592,0.00020789,-0.00009006,-0.0
 0022953,0.00818822,-0.00366659,-0.00499232,0.09103469,-0.00119417,-0.0
 0032034,-0.00016015,0.00019705,0.00030453,0.00006483,-0.00005787,-0.00
 021055,-0.00008996,0.00000884,0.00006741,-0.00000879,0.00213405,-0.000
 21206,0.00063478,-0.00009287,-0.00036454,-0.00003199,-0.00037984,0.000
 12538,-0.00002198,0.07623973,-0.18695113,-0.23972812,-0.00200929,0.003
 52682,0.00503860,0.00029814,-0.00004519,-0.00010738,-0.00003223,0.0000
 2193,0.00005789,0.00003949,0.00005878,0.00000328,-0.00001078,-0.000000
 59,-0.00000151,0.00004083,0.00006554,0.00004517,0.00001687,0.00021701,
 0.00009043,-0.00002800,0.00009321,0.00001321,0.00000153,-0.00000564,-0
 .00000550,0.00017745,0.00004375,0.00020624,-0.00002440,-0.00035362,-0.
 00061191,0.00003419,-0.00000832,0.00004008,0.00000053,0.00000459,-0.00
 000821,-0.00008027,0.00002831,0.00018134,0.00002999,-0.00000122,-0.000
 01634,0.00053822,0.00047206,0.00173037,0.00028359,-0.00000277,0.000314
 91,-0.00011172,-0.00006403,-0.00016327,-0.00121221,-0.00388650,-0.0056
 6727,-0.07479551,0.18739542,-0.00173229,-0.00019710,-0.00044265,0.0003
 6623,0.00050348,0.00013833,-0.00022098,-0.00028168,-0.00018090,0.00023
 855,0.00023891,0.00011308,0.00331606,0.00078718,0.00036589,-0.00006285
 ,-0.00079209,-0.00064032,0.00053918,0.00192871,0.00089402,0.10775963,-
 0.23243822,-0.30271802,-0.00044980,-0.00166850,-0.00185766,0.00043379,
 -0.00010053,-0.00013951,-0.00004893,0.00001219,0.00008283,0.00009050,0
 .00010556,0.00000299,-0.00001874,-0.00001126,0.00000176,0.00007425,0.0
 0005803,0.00010852,0.00002105,0.00014669,0.00030849,-0.00008476,0.0002
 5767,0.00009999,-0.00000581,-0.00001236,-0.00000847,0.00009816,-0.0000
 0911,0.00016274,-0.00014233,-0.00011789,-0.00070974,0.00003819,-0.0000
 1122,0.00005289,0.00000490,0.00000560,-0.00000850,-0.00007654,0.000005
 96,0.00019229,0.00003225,-0.00000280,-0.00001900,-0.00018827,0.0000797
 0,0.00090597,0.00035099,-0.00003938,0.00041749,-0.00011010,-0.00006128
 ,-0.00024731,-0.00307037,-0.00658693,-0.00734558,-0.10713920,0.2382017
 7,0.31047029,-0.00008464,0.00015877,-0.00151690,0.00000246,-0.00020020
 ,0.00052325,-0.00014086,0.00090634,-0.00122074,0.00038240,-0.00026416,
 0.00020274,0.00034758,0.00004374,0.00035690,-0.00033268,0.00013834,-0.
 00012302,0.00010445,-0.00003109,0.00008246,0.00005974,0.00002466,0.000
 04155,-0.00001181,0.00000122,0.00000299,-0.00013639,0.00007301,0.00035
 641,-0.00001419,-0.00000544,-0.00002050,-0.00016013,-0.00028967,0.0002
 0884,0.00006860,0.00003095,-0.00001291,0.00061424,-0.00185749,0.001692
 76,0.00024688,-0.00022446,0.00010458,0.00009161,-0.00008833,0.00001462
 ,-0.00000689,0.00001584,0.00000704,0.00215432,-0.00008814,0.00007210,-
 0.00106358,0.00014287,-0.00017314,-0.51834486,0.01446003,0.04729779,-0
 .00704643,0.00079427,-0.00151002,0.00030163,0.00000291,-0.00009574,-0.
 00001449,0.00000496,-0.00001231,0.00027865,0.00008453,0.00019532,0.000
 74628,0.00014946,0.00245979,-0.00856000,0.00246311,-0.00524053,-0.0002
 7580,0.00000038,-0.00015152,-0.00000300,-0.00001133,-0.00001274,0.5307
 9691,0.00002819,0.00006195,0.00005839,-0.00000932,-0.00006525,-0.00010
 103,-0.00001801,-0.00014970,0.00035493,-0.00014352,0.00005233,-0.00007
 757,-0.00000575,-0.00001114,0.00001677,0.00009796,0.00006282,-0.000035
 49,-0.00001234,-0.00003387,0.00000469,0.00000199,0.00000066,0.00000939
 ,-0.00000183,0.00000164,-0.00000640,0.00000319,-0.00000529,0.00000051,
 0.00000868,0.00000811,0.00000812,0.00002279,0.00003389,-0.00004225,-0.
 00000328,0.00000081,0.00001613,-0.00075462,0.00031862,-0.00030129,-0.0
 0000350,-0.00007528,0.00003153,-0.00001653,-0.00000570,0.00000950,-0.0
 0000099,-0.00000637,0.,0.00081074,0.00048403,0.00038047,-0.00026226,0.
 00014477,-0.00010551,0.02557810,-0.00860076,0.01670961,-0.01282343,0.0
 0071995,-0.00050590,0.00008378,-0.00002103,-0.00002035,0.00000323,0.00
 002707,-0.00000164,0.00008612,0.00000803,0.00011900,0.00010136,-0.0000
 9753,0.00018153,0.00365635,0.00027543,-0.00183110,0.00000788,0.0000180
 1,-0.00004499,0.00000009,0.00000179,-0.00000111,-0.01643508,0.00685203
 ,0.00000236,0.00010357,-0.00035682,0.00000956,-0.00006950,0.00004935,-
 0.00002078,0.00013165,-0.00014955,0.00009651,0.00000327,0.00000933,0.0
 0013084,-0.00002853,0.00006735,-0.00005227,-0.00014615,0.00018388,0.00
 000596,0.00001480,-0.00006668,0.00000415,-0.00001037,-0.00002577,0.000
 00293,0.00000439,-0.00000168,-0.00000587,-0.00000411,0.00002039,0.0000
 0223,0.00000259,-0.00000499,0.00000048,0.00000418,-0.00000934,0.000006
 09,0.00000458,0.00000632,0.00059026,0.00010142,-0.00025825,-0.00016157
 ,0.00029324,-0.00021285,-0.00001170,0.00004184,-0.00002595,-0.00000002
 ,-0.00000493,-0.00000306,-0.00268930,0.00056635,-0.00043579,0.00098881
 ,-0.00021418,0.00045664,0.01105720,0.01898103,-0.05857012,0.04042933,-
 0.00287143,0.00119704,-0.00032513,0.00000270,0.00005569,0.00000227,0.0
 0000211,0.00002510,-0.00017618,-0.00007509,-0.00029470,0.00097569,-0.0
 0000642,0.00001951,-0.00724262,-0.00201950,0.00570789,-0.00008437,0.00
 001898,0.00017375,-0.00000582,-0.00000054,0.00000009,-0.04352906,-0.01
 482595,0.05244321\\-0.00000492,-0.00000153,-0.00001024,-0.00000825,-0.
 00000005,-0.00000715,0.00000356,0.00000170,-0.00001754,-0.00000665,-0.
 00000028,-0.00000717,-0.00000092,-0.00000003,0.00000638,-0.00000163,-0
 .00000910,-0.00001330,0.00000099,0.00001049,0.00000835,-0.00000294,-0.
 00000917,0.00001475,-0.00000619,-0.00000940,0.00001890,-0.00000772,-0.
 00000249,-0.00000330,-0.00000803,-0.00000595,-0.00000357,-0.00000582,-
 0.00000751,-0.00001338,-0.00000680,0.00000607,-0.00002085,0.00000303,0
 .00000954,0.00000258,0.00000022,-0.00000040,0.00000953,-0.00000706,-0.
 00000093,0.00000305,-0.00000282,-0.00000327,-0.00000245,0.00000943,0.0
 0000505,0.00001089,0.00001284,0.00000885,0.00000456,0.00001241,0.00001
 151,0.00000363,0.00001339,0.00001359,-0.00000677,0.00001077,0.00000296
 ,0.00001125,0.00000909,0.00000347,0.00001328,-0.00000294,0.00000129,0.
 00000493,-0.00000165,-0.00000083,0.00000649,0.00000524,0.00000116,-0.0
 0002663,-0.00000970,-0.00002576,0.00000924,-0.00000679,-0.00001099,0.0
 0001539,0.00000986,0.00001199,-0.00001086\\\@


 Sacred cows make the best hamburger.
                               -- Mark Twain
 Job cpu time:       0 days  1 hours 42 minutes 50.4 seconds.
 File lengths (MBytes):  RWF=    857 Int=      0 D2E=      0 Chk=     25 Scr=      1
 Normal termination of Gaussian 09 at Thu Nov 26 17:16:33 2020.
