 Entering Gaussian System, Link 0=g09
 Initial command:
 /ihome/crc/build/g09/g09-D.01/TAR/g09/l1.exe "/scratch/slurm-4673090/Gau-18702.inp" -scrdir="/scratch/slurm-4673090/"
 Entering Link 1 = /ihome/crc/build/g09/g09-D.01/TAR/g09/l1.exe PID=     18703.
  
 Copyright (c) 1988,1990,1992,1993,1995,1998,2003,2009,2013,
            Gaussian, Inc.  All Rights Reserved.
  
 This is part of the Gaussian(R) 09 program.  It is based on
 the Gaussian(R) 03 system (copyright 2003, Gaussian, Inc.),
 the Gaussian(R) 98 system (copyright 1998, Gaussian, Inc.),
 the Gaussian(R) 94 system (copyright 1995, Gaussian, Inc.),
 the Gaussian 92(TM) system (copyright 1992, Gaussian, Inc.),
 the Gaussian 90(TM) system (copyright 1990, Gaussian, Inc.),
 the Gaussian 88(TM) system (copyright 1988, Gaussian, Inc.),
 the Gaussian 86(TM) system (copyright 1986, Carnegie Mellon
 University), and the Gaussian 82(TM) system (copyright 1983,
 Carnegie Mellon University). Gaussian is a federally registered
 trademark of Gaussian, Inc.
  
 This software contains proprietary and confidential information,
 including trade secrets, belonging to Gaussian, Inc.
  
 This software is provided under written license and may be
 used, copied, transmitted, or stored only in accord with that
 written license.
  
 The following legend is applicable only to US Government
 contracts under FAR:
  
                    RESTRICTED RIGHTS LEGEND
  
 Use, reproduction and disclosure by the US Government is
 subject to restrictions as set forth in subparagraphs (a)
 and (c) of the Commercial Computer Software - Restricted
 Rights clause in FAR 52.227-19.
  
 Gaussian, Inc.
 340 Quinnipiac St., Bldg. 40, Wallingford CT 06492
  
  
 ---------------------------------------------------------------
 Warning -- This program may not be used in any manner that
 competes with the business of Gaussian, Inc. or will provide
 assistance to any competitor of Gaussian, Inc.  The licensee
 of this program is prohibited from giving any competitor of
 Gaussian, Inc. access to this program.  By using this program,
 the user acknowledges that Gaussian, Inc. is engaged in the
 business of creating and licensing software in the field of
 computational chemistry and represents and warrants to the
 licensee that it is not a competitor of Gaussian, Inc. and that
 it will not use this program in any manner prohibited above.
 ---------------------------------------------------------------
  

 Cite this work as:
 Gaussian 09, Revision D.01,
 M. J. Frisch, G. W. Trucks, H. B. Schlegel, G. E. Scuseria, 
 M. A. Robb, J. R. Cheeseman, G. Scalmani, V. Barone, B. Mennucci, 
 G. A. Petersson, H. Nakatsuji, M. Caricato, X. Li, H. P. Hratchian, 
 A. F. Izmaylov, J. Bloino, G. Zheng, J. L. Sonnenberg, M. Hada, 
 M. Ehara, K. Toyota, R. Fukuda, J. Hasegawa, M. Ishida, T. Nakajima, 
 Y. Honda, O. Kitao, H. Nakai, T. Vreven, J. A. Montgomery, Jr., 
 J. E. Peralta, F. Ogliaro, M. Bearpark, J. J. Heyd, E. Brothers, 
 K. N. Kudin, V. N. Staroverov, T. Keith, R. Kobayashi, J. Normand, 
 K. Raghavachari, A. Rendell, J. C. Burant, S. S. Iyengar, J. Tomasi, 
 M. Cossi, N. Rega, J. M. Millam, M. Klene, J. E. Knox, J. B. Cross, 
 V. Bakken, C. Adamo, J. Jaramillo, R. Gomperts, R. E. Stratmann, 
 O. Yazyev, A. J. Austin, R. Cammi, C. Pomelli, J. W. Ochterski, 
 R. L. Martin, K. Morokuma, V. G. Zakrzewski, G. A. Voth, 
 P. Salvador, J. J. Dannenberg, S. Dapprich, A. D. Daniels, 
 O. Farkas, J. B. Foresman, J. V. Ortiz, J. Cioslowski, 
 and D. J. Fox, Gaussian, Inc., Wallingford CT, 2013.
 
 ******************************************
 Gaussian 09:  EM64L-G09RevD.01 24-Apr-2013
                14-Nov-2021 
 ******************************************
 %nprocshared=12
 Will use up to   12 processors via shared memory.
 %mem=86gb
 ----------------------------------------------------------------------
 # opt=readopt freq=noraman oniom(wb97xd/genecp:pm6:uff) scf=qc geom=co
 nnectivity
 ----------------------------------------------------------------------
 1/14=-1,18=1000020,19=15,29=6000,38=1,52=3,56=1,57=2,61=3,64=2,115=4/1,3;
 2/9=110,12=2,17=6,18=5,40=1/2;
 1/14=-1,18=1000020,19=15,38=1,52=3,53=6172,61=3,64=2,115=4/20;
 3/5=30,11=9,16=1,25=1,30=1,41=10200000,43=2,71=1/1;
 4/20=10,22=1,24=3,112=4/2;
 7/7=1,33=-1,44=-1,88=4/16;
 1/14=-1,18=1000020,19=15,26=1,52=3,53=5062,61=3,115=4/20;
 3/5=2,16=1,25=1,41=3900000,71=1/1,2,3;
 4/35=1,112=4/1;
 5/5=2,8=3,35=1,38=5/8;
 6/7=2,8=2,9=2,10=2,28=1/1;
 7/7=1,33=-1,88=4/1,2,3,16;
 1/14=-1,18=1000020,19=15,26=1,52=3,53=4052,61=3,115=4/20;
 3/5=7,11=2,16=1,17=8,25=1,30=1,71=1,74=-58/1,2,3;
 4/112=4/1;
 5/5=2,8=3,38=5/8;
 6/7=2,8=2,9=2,10=2,28=1/1;
 7/7=1,33=-1,88=4/1,2,3,16;
 1/14=-1,18=1000020,19=15,52=3,53=3042,61=3,64=2,115=4/20;
 3/5=30,11=9,16=1,25=1,30=1,41=10200000,43=2,71=1/1;
 4/20=10,22=1,24=3,112=4/2;
 7/7=1,33=-1,44=-1,88=4/16;
 1/14=-1,18=1000020,19=15,26=1,52=3,53=2032,61=3,115=4/20;
 3/5=2,16=1,25=1,41=3900000,71=1/1,2,3;
 4/35=1,112=4/1;
 5/5=2,8=3,35=1,38=5/8;
 6/7=2,8=2,9=2,10=2,28=1/1;
 7/7=1,33=-1,88=4/1,2,3,16;
 1/14=-1,18=1000020,19=15,52=3,53=1022,61=3,64=2,115=4/20;
 3/5=30,11=9,16=1,25=1,30=1,41=10200000,43=2,71=1/1;
 4/20=10,22=1,24=3,112=4/2;
 7/7=1,33=-1,44=-1,88=4/16;
 1/14=-1,18=1000020,19=15,52=3,53=6015,61=3,64=2,115=4/20;
 7/9=1,44=-1,88=4/16;
 1/14=-1,18=1000020,19=15,52=3,61=3,64=2,115=4/3(2);
 2/9=110/2;
 99//99;
 2/9=110/2;
 1/14=-1,18=1000020,19=15,52=3,53=6173,61=3,64=2,115=4/20;
 3/5=30,11=9,16=1,25=1,30=1,41=10200000,43=2,71=1/1;
 4/16=2,20=10,22=1,24=3,112=4/2;
 7/7=1,33=-1,44=-1,88=4/16;
 1/14=-1,18=1000020,19=15,26=1,52=3,53=5063,61=3,115=4/20;
 3/5=2,16=1,25=1,41=3900000,71=1,135=20/1,2,3;
 4/5=5,16=3,35=1,112=4/1;
 5/5=2,8=3,35=1,38=5/8;
 7/7=1,33=-1,88=4/1,2,3,16;
 1/14=-1,18=1000020,19=15,26=1,52=3,53=4053,61=3,115=4/20;
 3/5=7,6=1,11=2,16=1,17=8,25=1,30=1,71=1,74=-58,82=7/1,2,3;
 4/5=5,16=3,69=1,112=4/1;
 5/5=2,8=3,38=5/8;
 7/7=1,33=-1,88=4/1,2,3,16;
 1/14=-1,18=1000020,19=15,52=3,53=3043,61=3,64=2,115=4/20;
 3/5=30,11=9,16=1,25=1,30=1,41=10200000,43=2,71=1/1;
 4/16=2,20=10,22=1,24=3,112=4/2;
 7/7=1,33=-1,44=-1,88=4/16;
 1/14=-1,18=1000020,19=15,26=1,52=3,53=2033,61=3,115=4/20;
 3/5=2,16=1,25=1,41=3900000,71=1,135=20/1,2,3;
 4/5=5,16=3,35=1,112=4/1;
 5/5=2,8=3,35=1,38=5/8;
 7/7=1,33=-1,88=4/1,2,3,16;
 1/14=-1,18=1000020,19=15,52=3,53=1023,61=3,64=2,115=4/20;
 3/5=30,11=9,16=1,25=1,30=1,41=10200000,43=2,71=1/1;
 4/16=2,20=10,22=1,24=3,112=4/2;
 7/7=1,33=-1,44=-1,88=4/16;
 1/14=-1,18=1000020,19=15,52=3,53=6015,61=3,64=2,115=4/20;
 7/9=1,44=-1,88=4/16;
 1/14=-1,18=1000020,19=15,52=3,61=3,64=2,115=4/3(-30);
 2/9=110/2;
 99//99;
 -------------------
 Title Card Required
 -------------------
 Symbolic Z-matrix:
 Charge =  0 Multiplicity = 2 for low   level calculation on real  system.
 Charge =  0 Multiplicity = 2 for med   level calculation on mid   system.
 Charge =  0 Multiplicity = 2 for low   level calculation on mid   system.
 Charge =  0 Multiplicity = 2 for high  level calculation on model system.
 Charge =  0 Multiplicity = 2 for med   level calculation on model system.
 Charge =  0 Multiplicity = 2 for low   level calculation on model system.
 O-O_2                0    -1.32436  -5.47372  -3.02028  L    H-H_     126   0.        0.        0. 
 O-O_2                0    -1.24673  -2.92471  -5.5435   L    H-H_     127   0.        0.        0. 
 O-O_2                0    -5.36747   1.01574   3.41119  L 
 O-O_2                0    -5.40462  -3.35498  -1.00537  L 
 O-O_2                0    -5.26963   2.65391  -2.58193  L 
 O-O_2                0    -1.31552   0.17143   6.25131  L    H-H_     123   0.        0.        0. 
 O-O_2                0    -1.37287  -3.28843   5.30462  L    H-H_     118   0.        0.        0. 
 O-O_2                0    -1.10908   5.37617  -3.27226  L    H-H_     132   0.        0.        0. 
 O-O_2                0    -5.327    -0.80596  -3.5286   L 
 O-O_2                0    -5.28986   3.56476   0.88796  L 
 O-O_2                0    -5.42485  -2.44414   2.46452  L 
 O-O_2                0    -1.12929   6.28701   0.19764  L    H-H_     133   0.        0.        0. 
 O-O_2                0     1.1317   -6.22271  -3.57651  L    H-H_     124   0.        0.        0. 
 O-O_2                0     1.21309  -3.54889  -6.22327  L    H-H_     128   0.        0.        0. 
 O-O_2                0    -3.70504  -0.50073   2.05517  L 
 O-O_2                0     1.07473  -3.66061   6.18381  L    H-H_     119   0.        0.        0. 
 O-O_2                0    -3.68381  -1.45616  -1.58456  L 
 O-O_2                0    -3.62363   2.17306  -0.59155  L 
 O-O_2                0     1.13499  -0.03134   7.17675  L    H-H_     122   0.        0.        0. 
 O-O_2                0    -7.01066   1.66594   1.46714  L 
 O-O_2                0    -6.98944   0.71051  -2.17258  L 
 O-O_2                0    -7.07084  -1.96328   0.47414  L 
 O-O_2                0     1.35325   7.13866   0.07935  L    H-H_     134   0.        0.        0. 
 O-O_2                0     1.37449   6.18321  -3.56044  L    H-H_     130   0.        0.        0. 
 O-O_2                0    -0.47109  -5.43745  -5.50773  L 
 O-O_2                0    -3.41737   2.11297   2.02927  L 
 O-O_2                0    -3.49793  -2.74479   0.70012  L 
 O-O_2                0    -3.38896   0.83412  -2.84256  L 
 O-O_2                0    -0.54671  -2.03269   7.46273  L 
 O-O_2                0    -7.30551  -0.62434   2.72515  L 
 O-O_2                0    -7.19655   2.95457  -0.81753  L 
 O-O_2                0    -7.27711  -1.9032   -2.14668  L 
 O-O_2                0    -0.25661   7.49557  -1.96909  L 
 O-O_2                0     6.20181  -3.0897   -5.47611  L    H-H_     129   0.        0.        0. 
 O-O_2                0     2.18073  -2.25189  -8.2948   L    H-H_     128   0.        0.        0. 
 O-O_2                0    -0.78709  -4.19381  -7.80271  L 
 O-O_2                0    -0.89486  -7.73358  -4.29877  L 
 O-O_2                0     1.99548  -8.33554  -2.27279  L    H-H_     124   0.        0.        0. 
 O-O_2                0     6.12425  -5.63381  -2.95789  L    H-H_     125   0.        0.        0. 
 O-O_2                0    -7.76252   2.91138  -3.38487  L 
 O-O_2                0    -0.96385  -4.62778   7.53282  L 
 O-O_2                0     6.31998   6.16319   0.26992  L    H-H_     135   0.        0.        0. 
 O-O_2                0    -0.59144   7.60362  -4.57478  L 
 O-O_2                0     6.13289   0.01595   6.35494  L    H-H_     121   0.        0.        0. 
 O-O_2                0    -7.94775  -3.17252   2.63745  L 
 O-O_2                0    -7.92756  -4.08162  -0.82578  L 
 O-O_2                0     1.94667  -6.1389    6.09532  L    H-H_     119   0.        0.        0. 
 O-O_2                0     6.07536  -3.43711   5.41009  L    H-H_     120   0.        0.        0. 
 O-O_2                0     6.34009   5.2541   -3.19315  L    H-H_     131   0.        0.        0. 
 O-O_2                0     2.31908   6.09205  -6.0118   L    H-H_     130   0.        0.        0. 
 O-O_2                0    -7.81979  -0.54185  -4.32972  L 
 O-O_2                0    -2.82626  -1.42234  -4.06951  L    H-H_     127   0.        0.        0. 
 O-O_2                0    -2.90366  -3.96653  -1.55108  L    H-H_     126   0.        0.        0. 
 O-O_2                0    -0.61954   8.8685    0.24378  L 
 O-O_2                0    -2.87448   0.75165   4.21233  L    H-H_     123   0.        0.        0. 
 O-O_2                0    -2.74655   3.3823   -2.75489  L    H-H_     132   0.        0.        0. 
 O-O_2                0    -0.88417   0.17686   8.84743  L 
 O-O_2                0    -7.86807   1.63212   3.95206  L 
 O-O_2                0     2.27078   8.26594   2.26961  L    H-H_     134   0.        0.        0. 
 O-O_2                0    -2.93188  -2.70164   3.26746  L    H-H_     118   0.        0.        0. 
 O-O_2                0    -7.79061   4.17625   1.43368  L 
 O-O_2                0     2.08365   2.1186    8.35469  L    H-H_     122   0.        0.        0. 
 O-O_2                0    -2.7668    4.29141   0.7084   L    H-H_     133   0.        0.        0. 
 Si-Si3               0    -0.3907   -6.21624  -4.10147  L 
 Si-Si3               0    -0.32404  -4.02682  -6.26872  L 
 Si-Si3               0    -3.84147   0.84622   2.92708  L 
 Si-Si3               0    -3.87293  -2.88134  -0.85915  L 
 Si-Si3               0    -3.75758   2.26028  -2.19391  L 
 Si-Si3               0    -0.40394  -0.42975   7.43435  L 
 Si-Si3               0    -6.88761   0.92127   2.88962  L 
 Si-Si3               0    -6.80417   2.30876  -2.23864  L 
 Si-Si3               0    -6.91967  -2.82586  -0.87723  L 
 Si-Si3               0    -0.14673   6.66491  -3.34332  L 
 Si-Si3               0    -0.45322  -3.40153   6.62123  L 
 Si-Si3               0    -6.85301  -0.63644  -3.04449  L 
 Si-Si3               0    -6.82154   3.09111   0.74173  L 
 Si-Si3               0    -6.93689  -2.05051   2.0765   L 
 Si-Si3               0    -3.80687  -0.71149  -3.00703  L 
 Si-Si3               0    -0.16411   7.44727  -0.36294  L 
 Si-Si3               0    -3.89031  -2.09899   2.12123  L 
 Si-Si3               0    -3.77481   3.03564   0.75982  L 
 H-H_                 0    -0.73065  -5.12002   8.17857  L 
 H-H_                 0    -0.64136   0.26443   9.65183  L 
 H-H_                 0     2.09744   2.0565    9.19738  L 
 H-H_                 0     1.95529  -6.51478   6.85216  L 
 H-H_                 0     6.58274  -3.48691   6.08432  L 
 H-H_                 0     6.63558  -0.30008   6.95628  L 
 H-H_                 0    -8.74197  -3.45068   2.56304  L 
 H-H_                 0    -8.65267   1.93377   4.0363   L 
 H-H_                 0    -8.72334  -4.28965  -0.63302  L 
 H-H_                 0    -8.58119   4.28164   1.7122   L 
 H-H_                 0    -8.60255  -0.32271  -4.5598   L 
 H-H_                 0    -8.5497    2.86412  -3.68784  L 
 H-H_                 0    -0.53526  -4.51192  -8.54371  L 
 H-H_                 0    -0.65604  -8.47885  -4.61693  L 
 H-H_                 0     2.20353  -2.71985  -8.99816  L 
 H-H_                 0     2.01126  -9.03465  -2.74728  L 
 H-H_                 0     6.71019  -3.65891  -5.83922  L 
 H-H_                 0     6.63871  -6.00678  -3.51512  L 
 H-H_                 0    -0.32368   8.24665  -5.0528   L 
 H-H_                 0    -0.35516   9.66416   0.34724  L 
 H-H_                 0     2.31214   9.10837   2.21689  L 
 H-H_                 0     2.36226   6.85189  -6.37921  L 
 H-H_                 0     6.85029   6.75179  -0.02421  L 
 H-H_                 0     6.86892   5.91282  -3.22026  L 
 O-O_2                0    -0.41725   1.59765   4.24049  M    H-H_     175   0.        0.        0. 
 O-O_2                0     1.74056   2.04059   5.75847  M    H-H_     175   0.        0.        0. 
 O-O_2                0    -0.43759  -3.40132   2.81889  M    H-H_     176   0.        0.        0. 
 O-O_2                0     1.47972  -4.84783   3.91591  M    H-H_     176   0.        0.        0. 
 O-O_2                0    -0.4769   -4.457    -0.75485  M    H-H_     177   0.        0.        0. 
 O-O_2                0     1.6534   -6.04807  -1.053    M    H-H_     177   0.        0.        0. 
 O-O_2                0     1.67569  -1.00159  -6.09413  M    H-H_     178   0.        0.        0. 
 O-O_2                0    -0.31171  -0.73035  -4.37326  M    H-H_     178   0.        0.        0. 
 O-O_2                0     1.89755   3.89551  -4.63864  M    H-H_     173   0.        0.        0. 
 O-O_2                0    -0.2968    2.8879   -3.48845  M    H-H_     173   0.        0.        0. 
 O-O_2                0    -0.27332   4.15613   1.53614  M    H-H_     174   0.        0.        0. 
 O-O_2                0     1.72621   5.73977   2.22799  M    H-H_     174   0.        0.        0. 
 Si-Si3               0    -1.43773  -2.61695   3.83848  M 
 Si-Si3               0     1.97255  -4.72531   5.45571  M 
 Si-Si3               0     4.61643  -2.99362   5.11772  M    H-H_     163   0.        0.        0. 
 Si-Si3               0     4.64274  -0.18489   5.99884  M    H-H_     160   0.        0.        0. 
 Si-Si3               0     2.11148   1.19634   7.10444  M 
 Si-Si3               0    -1.38747   0.36807   4.6556   M 
 Si-Si3               0     2.05908  -6.79326  -2.4447   M 
 Si-Si3               0     4.64427  -5.19418  -3.00412  M    H-H_     148   0.        0.        0. 
 Si-Si3               0    -1.40289  -4.18746  -2.05604  M 
 Si-Si3               0    -1.33739  -1.98822  -4.23259  M 
 Si-Si3               0     2.15415  -2.40639  -6.7506   M 
 Si-Si3               0     4.72514  -3.03597  -4.9982   M    H-H_     151   0.        0.        0. 
 Si-Si3               0     2.32456   5.47012  -4.58718  M 
 Si-Si3               0     4.84486   5.10142  -2.84278  M    H-H_     154   0.        0.        0. 
 Si-Si3               0    -1.23802   3.90057  -2.6429   M 
 Si-Si3               0    -1.25652   4.68586   0.34962  M 
 Si-Si3               0     2.25145   7.00706   1.36149  M 
 Si-Si3               0     4.8439    5.74968   0.03511  M    H-H_     155   0.        0.        0. 
 O-O_2                0     4.50567   6.03167  -1.53067  M 
 O-O_2                0     3.8737    5.63464  -4.05179  M 
 O-O_2                0     3.80976   6.70575   0.88597  M 
 O-O_2                0    -0.86364   3.99516  -1.06626  M 
 O-O_2                0    -1.01777  -1.0525    3.96179  M 
 O-O_2                0     3.65269   0.62009   7.02907  M 
 O-O_2                0     3.54219  -4.19059   5.4701   M 
 O-O_2                0     3.62203  -6.46722  -2.84944  M 
 O-O_2                0     3.701    -2.72421  -6.24873  M 
 O-O_2                0    -0.97825  -2.88399  -2.92673  M 
 O-O_2                0     4.33238  -4.52665  -4.47555  M 
 O-O_2                0     4.26795  -1.77998   6.14468  M 
 O-O_2                0     4.46529  -4.10278  -1.7761   H 
 O-O_3                0     3.62306  -1.2673   -1.26083  H 
 O-O_2                0     2.17071  -0.78246  -3.38658  H 
 O-O_2                0     4.67827  -1.84005  -3.75042  H 
 O-O_2                0     4.43282   0.65851  -2.88332  H 
 O-O_2                0     2.03903   2.13835  -2.4295   H 
 O-O_2                0     4.62867   3.49266  -2.5379   H 
 O-O_2                0     4.76493   4.07954   0.46606  H 
 O-O_2                0     2.21366   3.2685    1.08801  H 
 O-O_2                0     4.39792   2.05705   2.17286  H 
 O-O_3                0     3.73929   1.6743   -0.34536  H 
 O-O_2                0     1.93272   0.9953    3.14228  H 
 O-O_2                0     4.47631   0.35267   4.4445   H 
 O-O_3                0     3.5902   -0.62645   1.72762  H 
 O-O_2                0     2.09471  -2.65423   2.36773  H 
 O-O_2                0     4.60358  -2.50352   3.45939  H 
 O-O_2                0     4.34268  -3.02      0.85565  H 
 Si-Si3               0     3.68259  -2.33278   2.13054  H 
 Si-Si3               0     3.79609   2.86706   0.94074  H 
 Si-Si3               0     3.74642  -0.7782   -2.94608  H 
 Al-Al3               0     3.7733    2.12423  -2.21305  H 
 Al-Al3               0     3.6452   -3.1205   -0.73653  H 
 Al-Al3               0     3.65986   0.75661   3.0708   H 
 O-O_2                0     1.90886  -3.27148  -0.63463  H 
 Ru-                  0     2.78904  -0.01262   0.02798  H 
 Si-Si3               0     1.31102   2.54731  -3.83204  H 
 Si-Si3               0     1.28201   4.13594   2.15311  H 
 Si-Si3               0     1.20385   2.02778   4.17053  H 
 Si-Si3               0     1.11143  -3.97408   2.54776  H 
 Si-Si3               0     1.1238   -4.65535  -0.28697  H 
 Si-Si3               0     1.26328  -0.2497   -4.66676  H 
 O-O_2                0     1.44742   3.57228   3.66313  H 
 O-O_2                0     1.49649   1.33302  -4.92307  H 
 O-O_2                0     1.29106  -5.00385   1.31067  H 
 
 AtmSel:  Line="noatoms atom=106-181"
 AtmSel:  NamVal=Blocks NAtLst=    76 NIVal=     0 NNoVal=     0:
 AtmSel:  IAtLst=    106    107    108    109    110    111    112    113    114    115
 AtmSel:  IAtLst=    116    117    118    119    120    121    122    123    124    125
 AtmSel:  IAtLst=    126    127    128    129    130    131    132    133    134    135
 AtmSel:  IAtLst=    136    137    138    139    140    141    142    143    144    145
 AtmSel:  IAtLst=    146    147    148    149    150    151    152    153    154    155
 AtmSel:  IAtLst=    156    157    158    159    160    161    162    163    164    165
 AtmSel:  IAtLst=    166    167    168    169    170    171    172    173    174    175
 AtmSel:  IAtLst=    176    177    178    179    180    181
 I=    1 IAn=  8 Valence= 4.
          JB=  1 J=   64 IAn= 14 IBT= 2 Dist= 1.61D+00
          JB=  2 J=  126 IAn= 14 IBT= 2 Dist= 1.61D+00
 I=    2 IAn=  8 Valence= 4.
          JB=  1 J=   65 IAn= 14 IBT= 2 Dist= 1.61D+00
          JB=  2 J=  127 IAn= 14 IBT= 2 Dist= 1.61D+00
 I=    3 IAn=  8 Valence= 4.
          JB=  1 J=   66 IAn= 14 IBT= 2 Dist= 1.61D+00
          JB=  2 J=   70 IAn= 14 IBT= 2 Dist= 1.61D+00
 I=    4 IAn=  8 Valence= 4.
          JB=  1 J=   67 IAn= 14 IBT= 2 Dist= 1.61D+00
          JB=  2 J=   72 IAn= 14 IBT= 2 Dist= 1.61D+00
 I=    5 IAn=  8 Valence= 4.
          JB=  1 J=   68 IAn= 14 IBT= 2 Dist= 1.61D+00
          JB=  2 J=   71 IAn= 14 IBT= 2 Dist= 1.61D+00
 I=    6 IAn=  8 Valence= 4.
          JB=  1 J=   69 IAn= 14 IBT= 2 Dist= 1.61D+00
          JB=  2 J=  123 IAn= 14 IBT= 2 Dist= 1.61D+00
 I=    7 IAn=  8 Valence= 4.
          JB=  1 J=   74 IAn= 14 IBT= 2 Dist= 1.61D+00
          JB=  2 J=  118 IAn= 14 IBT= 2 Dist= 1.61D+00
 I=    8 IAn=  8 Valence= 4.
          JB=  1 J=   73 IAn= 14 IBT= 2 Dist= 1.61D+00
          JB=  2 J=  132 IAn= 14 IBT= 2 Dist= 1.61D+00
 I=    9 IAn=  8 Valence= 4.
          JB=  1 J=   75 IAn= 14 IBT= 2 Dist= 1.61D+00
          JB=  2 J=   78 IAn= 14 IBT= 2 Dist= 1.61D+00
 I=   10 IAn=  8 Valence= 4.
          JB=  1 J=   76 IAn= 14 IBT= 2 Dist= 1.61D+00
          JB=  2 J=   81 IAn= 14 IBT= 2 Dist= 1.61D+00
 I=   11 IAn=  8 Valence= 4.
          JB=  1 J=   77 IAn= 14 IBT= 2 Dist= 1.61D+00
          JB=  2 J=   80 IAn= 14 IBT= 2 Dist= 1.61D+00
 I=   12 IAn=  8 Valence= 4.
          JB=  1 J=   79 IAn= 14 IBT= 2 Dist= 1.61D+00
          JB=  2 J=  133 IAn= 14 IBT= 2 Dist= 1.61D+00
 I=   13 IAn=  8 Valence= 4.
          JB=  1 J=   64 IAn= 14 IBT= 2 Dist= 1.61D+00
          JB=  2 J=  124 IAn= 14 IBT= 2 Dist= 1.57D+00
 I=   14 IAn=  8 Valence= 4.
          JB=  1 J=   65 IAn= 14 IBT= 2 Dist= 1.61D+00
          JB=  2 J=  128 IAn= 14 IBT= 2 Dist= 1.57D+00
 I=   15 IAn=  8 Valence= 4.
          JB=  1 J=   66 IAn= 14 IBT= 2 Dist= 1.61D+00
          JB=  2 J=   80 IAn= 14 IBT= 2 Dist= 1.61D+00
 I=   16 IAn=  8 Valence= 4.
          JB=  1 J=   74 IAn= 14 IBT= 2 Dist= 1.61D+00
          JB=  2 J=  119 IAn= 14 IBT= 2 Dist= 1.57D+00
 I=   17 IAn=  8 Valence= 4.
          JB=  1 J=   67 IAn= 14 IBT= 2 Dist= 1.61D+00
          JB=  2 J=   78 IAn= 14 IBT= 2 Dist= 1.61D+00
 I=   18 IAn=  8 Valence= 4.
          JB=  1 J=   68 IAn= 14 IBT= 2 Dist= 1.61D+00
          JB=  2 J=   81 IAn= 14 IBT= 2 Dist= 1.61D+00
 I=   19 IAn=  8 Valence= 4.
          JB=  1 J=   69 IAn= 14 IBT= 2 Dist= 1.61D+00
          JB=  2 J=  122 IAn= 14 IBT= 2 Dist= 1.57D+00
 I=   20 IAn=  8 Valence= 4.
          JB=  1 J=   70 IAn= 14 IBT= 2 Dist= 1.61D+00
          JB=  2 J=   76 IAn= 14 IBT= 2 Dist= 1.61D+00
 I=   21 IAn=  8 Valence= 4.
          JB=  1 J=   71 IAn= 14 IBT= 2 Dist= 1.61D+00
          JB=  2 J=   75 IAn= 14 IBT= 2 Dist= 1.61D+00
 I=   22 IAn=  8 Valence= 4.
          JB=  1 J=   72 IAn= 14 IBT= 2 Dist= 1.61D+00
          JB=  2 J=   77 IAn= 14 IBT= 2 Dist= 1.61D+00
 I=   23 IAn=  8 Valence= 4.
          JB=  1 J=   79 IAn= 14 IBT= 2 Dist= 1.61D+00
          JB=  2 J=  134 IAn= 14 IBT= 2 Dist= 1.57D+00
 I=   24 IAn=  8 Valence= 4.
          JB=  1 J=   73 IAn= 14 IBT= 2 Dist= 1.61D+00
          JB=  2 J=  130 IAn= 14 IBT= 2 Dist= 1.57D+00
 I=   25 IAn=  8 Valence= 4.
          JB=  1 J=   64 IAn= 14 IBT= 2 Dist= 1.61D+00
          JB=  2 J=   65 IAn= 14 IBT= 2 Dist= 1.61D+00
 I=   26 IAn=  8 Valence= 4.
          JB=  1 J=   66 IAn= 14 IBT= 2 Dist= 1.61D+00
          JB=  2 J=   81 IAn= 14 IBT= 2 Dist= 1.61D+00
 I=   27 IAn=  8 Valence= 4.
          JB=  1 J=   67 IAn= 14 IBT= 2 Dist= 1.61D+00
          JB=  2 J=   80 IAn= 14 IBT= 2 Dist= 1.61D+00
 I=   28 IAn=  8 Valence= 4.
          JB=  1 J=   68 IAn= 14 IBT= 2 Dist= 1.61D+00
          JB=  2 J=   78 IAn= 14 IBT= 2 Dist= 1.61D+00
 I=   29 IAn=  8 Valence= 4.
          JB=  1 J=   69 IAn= 14 IBT= 2 Dist= 1.61D+00
          JB=  2 J=   74 IAn= 14 IBT= 2 Dist= 1.61D+00
 I=   30 IAn=  8 Valence= 4.
          JB=  1 J=   70 IAn= 14 IBT= 2 Dist= 1.61D+00
          JB=  2 J=   77 IAn= 14 IBT= 2 Dist= 1.61D+00
 I=   31 IAn=  8 Valence= 4.
          JB=  1 J=   71 IAn= 14 IBT= 2 Dist= 1.61D+00
          JB=  2 J=   76 IAn= 14 IBT= 2 Dist= 1.61D+00
 I=   32 IAn=  8 Valence= 4.
          JB=  1 J=   72 IAn= 14 IBT= 2 Dist= 1.61D+00
          JB=  2 J=   75 IAn= 14 IBT= 2 Dist= 1.61D+00
 I=   33 IAn=  8 Valence= 4.
          JB=  1 J=   73 IAn= 14 IBT= 2 Dist= 1.61D+00
          JB=  2 J=   79 IAn= 14 IBT= 2 Dist= 1.61D+00
 I=   34 IAn=  8 Valence= 3.
          JB=  1 J=   98 IAn=  1 IBT= 1 Dist= 8.45D-01
          JB=  2 J=  129 IAn= 14 IBT= 2 Dist= 1.55D+00
 I=   35 IAn=  8 Valence= 3.
          JB=  1 J=   96 IAn=  1 IBT= 1 Dist= 8.45D-01
          JB=  2 J=  128 IAn= 14 IBT= 2 Dist= 1.55D+00
 I=   36 IAn=  8 Valence= 3.
          JB=  1 J=   65 IAn= 14 IBT= 2 Dist= 1.61D+00
          JB=  2 J=   94 IAn=  1 IBT= 1 Dist= 8.45D-01
 I=   37 IAn=  8 Valence= 3.
          JB=  1 J=   64 IAn= 14 IBT= 2 Dist= 1.61D+00
          JB=  2 J=   95 IAn=  1 IBT= 1 Dist= 8.45D-01
 I=   38 IAn=  8 Valence= 3.
          JB=  1 J=   97 IAn=  1 IBT= 1 Dist= 8.45D-01
          JB=  2 J=  124 IAn= 14 IBT= 2 Dist= 1.55D+00
 I=   39 IAn=  8 Valence= 3.
          JB=  1 J=   99 IAn=  1 IBT= 1 Dist= 8.45D-01
          JB=  2 J=  125 IAn= 14 IBT= 2 Dist= 1.54D+00
 I=   40 IAn=  8 Valence= 3.
          JB=  1 J=   71 IAn= 14 IBT= 2 Dist= 1.61D+00
          JB=  2 J=   93 IAn=  1 IBT= 1 Dist= 8.45D-01
 I=   41 IAn=  8 Valence= 3.
          JB=  1 J=   74 IAn= 14 IBT= 2 Dist= 1.61D+00
          JB=  2 J=   82 IAn=  1 IBT= 1 Dist= 8.45D-01
 I=   42 IAn=  8 Valence= 3.
          JB=  1 J=  104 IAn=  1 IBT= 1 Dist= 8.45D-01
          JB=  2 J=  135 IAn= 14 IBT= 2 Dist= 1.55D+00
 I=   43 IAn=  8 Valence= 3.
          JB=  1 J=   73 IAn= 14 IBT= 2 Dist= 1.61D+00
          JB=  2 J=  100 IAn=  1 IBT= 1 Dist= 8.45D-01
 I=   44 IAn=  8 Valence= 3.
          JB=  1 J=   87 IAn=  1 IBT= 1 Dist= 8.45D-01
          JB=  2 J=  121 IAn= 14 IBT= 2 Dist= 1.55D+00
 I=   45 IAn=  8 Valence= 3.
          JB=  1 J=   77 IAn= 14 IBT= 2 Dist= 1.61D+00
          JB=  2 J=   88 IAn=  1 IBT= 1 Dist= 8.45D-01
 I=   46 IAn=  8 Valence= 3.
          JB=  1 J=   72 IAn= 14 IBT= 2 Dist= 1.61D+00
          JB=  2 J=   90 IAn=  1 IBT= 1 Dist= 8.45D-01
 I=   47 IAn=  8 Valence= 3.
          JB=  1 J=   85 IAn=  1 IBT= 1 Dist= 8.45D-01
          JB=  2 J=  119 IAn= 14 IBT= 2 Dist= 1.55D+00
 I=   48 IAn=  8 Valence= 3.
          JB=  1 J=   86 IAn=  1 IBT= 1 Dist= 8.45D-01
          JB=  2 J=  120 IAn= 14 IBT= 2 Dist= 1.55D+00
 I=   49 IAn=  8 Valence= 3.
          JB=  1 J=  105 IAn=  1 IBT= 1 Dist= 8.45D-01
          JB=  2 J=  131 IAn= 14 IBT= 2 Dist= 1.54D+00
 I=   50 IAn=  8 Valence= 3.
          JB=  1 J=  103 IAn=  1 IBT= 1 Dist= 8.45D-01
          JB=  2 J=  130 IAn= 14 IBT= 2 Dist= 1.55D+00
 I=   51 IAn=  8 Valence= 3.
          JB=  1 J=   75 IAn= 14 IBT= 2 Dist= 1.61D+00
          JB=  2 J=   92 IAn=  1 IBT= 1 Dist= 8.45D-01
 I=   52 IAn=  8 Valence= 4.
          JB=  1 J=   78 IAn= 14 IBT= 2 Dist= 1.61D+00
          JB=  2 J=  127 IAn= 14 IBT= 2 Dist= 1.60D+00
 I=   53 IAn=  8 Valence= 4.
          JB=  1 J=   67 IAn= 14 IBT= 2 Dist= 1.61D+00
          JB=  2 J=  126 IAn= 14 IBT= 2 Dist= 1.60D+00
 I=   54 IAn=  8 Valence= 3.
          JB=  1 J=   79 IAn= 14 IBT= 2 Dist= 1.61D+00
          JB=  2 J=  101 IAn=  1 IBT= 1 Dist= 8.45D-01
 I=   55 IAn=  8 Valence= 4.
          JB=  1 J=   66 IAn= 14 IBT= 2 Dist= 1.61D+00
          JB=  2 J=  123 IAn= 14 IBT= 2 Dist= 1.60D+00
 I=   56 IAn=  8 Valence= 4.
          JB=  1 J=   68 IAn= 14 IBT= 2 Dist= 1.61D+00
          JB=  2 J=  132 IAn= 14 IBT= 2 Dist= 1.60D+00
 I=   57 IAn=  8 Valence= 3.
          JB=  1 J=   69 IAn= 14 IBT= 2 Dist= 1.61D+00
          JB=  2 J=   83 IAn=  1 IBT= 1 Dist= 8.45D-01
 I=   58 IAn=  8 Valence= 3.
          JB=  1 J=   70 IAn= 14 IBT= 2 Dist= 1.61D+00
          JB=  2 J=   89 IAn=  1 IBT= 1 Dist= 8.45D-01
 I=   59 IAn=  8 Valence= 3.
          JB=  1 J=  102 IAn=  1 IBT= 1 Dist= 8.45D-01
          JB=  2 J=  134 IAn= 14 IBT= 2 Dist= 1.55D+00
 I=   60 IAn=  8 Valence= 4.
          JB=  1 J=   80 IAn= 14 IBT= 2 Dist= 1.61D+00
          JB=  2 J=  118 IAn= 14 IBT= 2 Dist= 1.60D+00
 I=   61 IAn=  8 Valence= 3.
          JB=  1 J=   76 IAn= 14 IBT= 2 Dist= 1.61D+00
          JB=  2 J=   91 IAn=  1 IBT= 1 Dist= 8.45D-01
 I=   62 IAn=  8 Valence= 3.
          JB=  1 J=   84 IAn=  1 IBT= 1 Dist= 8.45D-01
          JB=  2 J=  122 IAn= 14 IBT= 2 Dist= 1.55D+00
 I=   63 IAn=  8 Valence= 4.
          JB=  1 J=   81 IAn= 14 IBT= 2 Dist= 1.61D+00
          JB=  2 J=  133 IAn= 14 IBT= 2 Dist= 1.60D+00
 I=   64 IAn= 14 Valence= 8.
          JB=  1 J=    1 IAn=  8 IBT= 2 Dist= 1.61D+00
          JB=  2 J=   13 IAn=  8 IBT= 2 Dist= 1.61D+00
          JB=  3 J=   25 IAn=  8 IBT= 2 Dist= 1.61D+00
          JB=  4 J=   37 IAn=  8 IBT= 2 Dist= 1.61D+00
 I=   65 IAn= 14 Valence= 8.
          JB=  1 J=    2 IAn=  8 IBT= 2 Dist= 1.61D+00
          JB=  2 J=   14 IAn=  8 IBT= 2 Dist= 1.61D+00
          JB=  3 J=   25 IAn=  8 IBT= 2 Dist= 1.61D+00
          JB=  4 J=   36 IAn=  8 IBT= 2 Dist= 1.61D+00
 I=   66 IAn= 14 Valence= 8.
          JB=  1 J=    3 IAn=  8 IBT= 2 Dist= 1.61D+00
          JB=  2 J=   15 IAn=  8 IBT= 2 Dist= 1.61D+00
          JB=  3 J=   26 IAn=  8 IBT= 2 Dist= 1.61D+00
          JB=  4 J=   55 IAn=  8 IBT= 2 Dist= 1.61D+00
 I=   67 IAn= 14 Valence= 8.
          JB=  1 J=    4 IAn=  8 IBT= 2 Dist= 1.61D+00
          JB=  2 J=   17 IAn=  8 IBT= 2 Dist= 1.61D+00
          JB=  3 J=   27 IAn=  8 IBT= 2 Dist= 1.61D+00
          JB=  4 J=   53 IAn=  8 IBT= 2 Dist= 1.61D+00
 I=   68 IAn= 14 Valence= 8.
          JB=  1 J=    5 IAn=  8 IBT= 2 Dist= 1.61D+00
          JB=  2 J=   18 IAn=  8 IBT= 2 Dist= 1.61D+00
          JB=  3 J=   28 IAn=  8 IBT= 2 Dist= 1.61D+00
          JB=  4 J=   56 IAn=  8 IBT= 2 Dist= 1.61D+00
 I=   69 IAn= 14 Valence= 8.
          JB=  1 J=    6 IAn=  8 IBT= 2 Dist= 1.61D+00
          JB=  2 J=   19 IAn=  8 IBT= 2 Dist= 1.61D+00
          JB=  3 J=   29 IAn=  8 IBT= 2 Dist= 1.61D+00
          JB=  4 J=   57 IAn=  8 IBT= 2 Dist= 1.61D+00
 I=   70 IAn= 14 Valence= 8.
          JB=  1 J=    3 IAn=  8 IBT= 2 Dist= 1.61D+00
          JB=  2 J=   20 IAn=  8 IBT= 2 Dist= 1.61D+00
          JB=  3 J=   30 IAn=  8 IBT= 2 Dist= 1.61D+00
          JB=  4 J=   58 IAn=  8 IBT= 2 Dist= 1.61D+00
 I=   71 IAn= 14 Valence= 8.
          JB=  1 J=    5 IAn=  8 IBT= 2 Dist= 1.61D+00
          JB=  2 J=   21 IAn=  8 IBT= 2 Dist= 1.61D+00
          JB=  3 J=   31 IAn=  8 IBT= 2 Dist= 1.61D+00
          JB=  4 J=   40 IAn=  8 IBT= 2 Dist= 1.61D+00
 I=   72 IAn= 14 Valence= 8.
          JB=  1 J=    4 IAn=  8 IBT= 2 Dist= 1.61D+00
          JB=  2 J=   22 IAn=  8 IBT= 2 Dist= 1.61D+00
          JB=  3 J=   32 IAn=  8 IBT= 2 Dist= 1.61D+00
          JB=  4 J=   46 IAn=  8 IBT= 2 Dist= 1.61D+00
 I=   73 IAn= 14 Valence= 8.
          JB=  1 J=    8 IAn=  8 IBT= 2 Dist= 1.61D+00
          JB=  2 J=   24 IAn=  8 IBT= 2 Dist= 1.61D+00
          JB=  3 J=   33 IAn=  8 IBT= 2 Dist= 1.61D+00
          JB=  4 J=   43 IAn=  8 IBT= 2 Dist= 1.61D+00
 I=   74 IAn= 14 Valence= 8.
          JB=  1 J=    7 IAn=  8 IBT= 2 Dist= 1.61D+00
          JB=  2 J=   16 IAn=  8 IBT= 2 Dist= 1.61D+00
          JB=  3 J=   29 IAn=  8 IBT= 2 Dist= 1.61D+00
          JB=  4 J=   41 IAn=  8 IBT= 2 Dist= 1.61D+00
 I=   75 IAn= 14 Valence= 8.
          JB=  1 J=    9 IAn=  8 IBT= 2 Dist= 1.61D+00
          JB=  2 J=   21 IAn=  8 IBT= 2 Dist= 1.61D+00
          JB=  3 J=   32 IAn=  8 IBT= 2 Dist= 1.61D+00
          JB=  4 J=   51 IAn=  8 IBT= 2 Dist= 1.61D+00
 I=   76 IAn= 14 Valence= 8.
          JB=  1 J=   10 IAn=  8 IBT= 2 Dist= 1.61D+00
          JB=  2 J=   20 IAn=  8 IBT= 2 Dist= 1.61D+00
          JB=  3 J=   31 IAn=  8 IBT= 2 Dist= 1.61D+00
          JB=  4 J=   61 IAn=  8 IBT= 2 Dist= 1.61D+00
 I=   77 IAn= 14 Valence= 8.
          JB=  1 J=   11 IAn=  8 IBT= 2 Dist= 1.61D+00
          JB=  2 J=   22 IAn=  8 IBT= 2 Dist= 1.61D+00
          JB=  3 J=   30 IAn=  8 IBT= 2 Dist= 1.61D+00
          JB=  4 J=   45 IAn=  8 IBT= 2 Dist= 1.61D+00
 I=   78 IAn= 14 Valence= 8.
          JB=  1 J=    9 IAn=  8 IBT= 2 Dist= 1.61D+00
          JB=  2 J=   17 IAn=  8 IBT= 2 Dist= 1.61D+00
          JB=  3 J=   28 IAn=  8 IBT= 2 Dist= 1.61D+00
          JB=  4 J=   52 IAn=  8 IBT= 2 Dist= 1.61D+00
 I=   79 IAn= 14 Valence= 8.
          JB=  1 J=   12 IAn=  8 IBT= 2 Dist= 1.61D+00
          JB=  2 J=   23 IAn=  8 IBT= 2 Dist= 1.61D+00
          JB=  3 J=   33 IAn=  8 IBT= 2 Dist= 1.61D+00
          JB=  4 J=   54 IAn=  8 IBT= 2 Dist= 1.61D+00
 I=   80 IAn= 14 Valence= 8.
          JB=  1 J=   11 IAn=  8 IBT= 2 Dist= 1.61D+00
          JB=  2 J=   15 IAn=  8 IBT= 2 Dist= 1.61D+00
          JB=  3 J=   27 IAn=  8 IBT= 2 Dist= 1.61D+00
          JB=  4 J=   60 IAn=  8 IBT= 2 Dist= 1.61D+00
 I=   81 IAn= 14 Valence= 8.
          JB=  1 J=   10 IAn=  8 IBT= 2 Dist= 1.61D+00
          JB=  2 J=   18 IAn=  8 IBT= 2 Dist= 1.61D+00
          JB=  3 J=   26 IAn=  8 IBT= 2 Dist= 1.61D+00
          JB=  4 J=   63 IAn=  8 IBT= 2 Dist= 1.61D+00
 I=  106 IAn=  8 Valence= 4.
          JB=  1 J=  123 IAn= 14 IBT= 2 Dist= 1.62D+00
          JB=  2 J=  175 IAn= 14 IBT=12 Dist= 1.68D+00
 I=  107 IAn=  8 Valence= 4.
          JB=  1 J=  122 IAn= 14 IBT= 2 Dist= 1.63D+00
          JB=  2 J=  175 IAn= 14 IBT=12 Dist= 1.68D+00
 I=  108 IAn=  8 Valence= 4.
          JB=  1 J=  118 IAn= 14 IBT= 2 Dist= 1.63D+00
          JB=  2 J=  176 IAn= 14 IBT=12 Dist= 1.67D+00
 I=  109 IAn=  8 Valence= 4.
          JB=  1 J=  119 IAn= 14 IBT= 2 Dist= 1.62D+00
          JB=  2 J=  176 IAn= 14 IBT=12 Dist= 1.66D+00
 I=  110 IAn=  8 Valence= 4.
          JB=  1 J=  126 IAn= 14 IBT= 2 Dist= 1.62D+00
          JB=  2 J=  177 IAn= 14 IBT=12 Dist= 1.68D+00
 I=  111 IAn=  8 Valence= 4.
          JB=  1 J=  124 IAn= 14 IBT= 2 Dist= 1.63D+00
          JB=  2 J=  177 IAn= 14 IBT=12 Dist= 1.68D+00
 I=  112 IAn=  8 Valence= 4.
          JB=  1 J=  128 IAn= 14 IBT= 2 Dist= 1.62D+00
          JB=  2 J=  178 IAn= 14 IBT=12 Dist= 1.67D+00
 I=  113 IAn=  8 Valence= 4.
          JB=  1 J=  127 IAn= 14 IBT= 2 Dist= 1.63D+00
          JB=  2 J=  178 IAn= 14 IBT=12 Dist= 1.67D+00
 I=  114 IAn=  8 Valence= 4.
          JB=  1 J=  130 IAn= 14 IBT= 2 Dist= 1.63D+00
          JB=  2 J=  173 IAn= 14 IBT=12 Dist= 1.68D+00
 I=  115 IAn=  8 Valence= 4.
          JB=  1 J=  132 IAn= 14 IBT= 2 Dist= 1.62D+00
          JB=  2 J=  173 IAn= 14 IBT=12 Dist= 1.68D+00
 I=  116 IAn=  8 Valence= 4.
          JB=  1 J=  133 IAn= 14 IBT= 2 Dist= 1.63D+00
          JB=  2 J=  174 IAn= 14 IBT=12 Dist= 1.67D+00
 I=  117 IAn=  8 Valence= 4.
          JB=  1 J=  134 IAn= 14 IBT= 2 Dist= 1.62D+00
          JB=  2 J=  174 IAn= 14 IBT=12 Dist= 1.67D+00
 I=  118 IAn= 14 Valence= 8.
          JB=  1 J=    7 IAn=  8 IBT= 2 Dist= 1.61D+00
          JB=  2 J=   60 IAn=  8 IBT= 2 Dist= 1.60D+00
          JB=  3 J=  108 IAn=  8 IBT= 2 Dist= 1.63D+00
          JB=  4 J=  140 IAn=  8 IBT= 2 Dist= 1.62D+00
 I=  119 IAn= 14 Valence= 8.
          JB=  1 J=   16 IAn=  8 IBT= 2 Dist= 1.57D+00
          JB=  2 J=   47 IAn=  8 IBT= 2 Dist= 1.55D+00
          JB=  3 J=  109 IAn=  8 IBT= 2 Dist= 1.62D+00
          JB=  4 J=  142 IAn=  8 IBT=12 Dist= 1.66D+00
 I=  120 IAn= 14 Valence= 7.
          JB=  1 J=   48 IAn=  8 IBT= 2 Dist= 1.55D+00
          JB=  2 J=  142 IAn=  8 IBT= 2 Dist= 1.65D+00
          JB=  3 J=  147 IAn=  8 IBT= 2 Dist= 1.63D+00
          JB=  4 J=  163 IAn=  8 IBT= 1 Dist= 1.73D+00
 I=  121 IAn= 14 Valence= 8.
          JB=  1 J=   44 IAn=  8 IBT= 2 Dist= 1.55D+00
          JB=  2 J=  141 IAn=  8 IBT= 2 Dist= 1.64D+00
          JB=  3 J=  147 IAn=  8 IBT= 2 Dist= 1.65D+00
          JB=  4 J=  160 IAn=  8 IBT=12 Dist= 1.65D+00
 I=  122 IAn= 14 Valence= 8.
          JB=  1 J=   19 IAn=  8 IBT= 2 Dist= 1.57D+00
          JB=  2 J=   62 IAn=  8 IBT= 2 Dist= 1.55D+00
          JB=  3 J=  107 IAn=  8 IBT= 2 Dist= 1.63D+00
          JB=  4 J=  141 IAn=  8 IBT=12 Dist= 1.65D+00
 I=  123 IAn= 14 Valence= 8.
          JB=  1 J=    6 IAn=  8 IBT= 2 Dist= 1.61D+00
          JB=  2 J=   55 IAn=  8 IBT= 2 Dist= 1.60D+00
          JB=  3 J=  106 IAn=  8 IBT= 2 Dist= 1.62D+00
          JB=  4 J=  140 IAn=  8 IBT= 2 Dist= 1.62D+00
 I=  124 IAn= 14 Valence= 8.
          JB=  1 J=   13 IAn=  8 IBT= 2 Dist= 1.57D+00
          JB=  2 J=   38 IAn=  8 IBT= 2 Dist= 1.55D+00
          JB=  3 J=  111 IAn=  8 IBT= 2 Dist= 1.63D+00
          JB=  4 J=  143 IAn=  8 IBT=12 Dist= 1.65D+00
 I=  125 IAn= 14 Valence= 8.
          JB=  1 J=   39 IAn=  8 IBT= 2 Dist= 1.54D+00
          JB=  2 J=  143 IAn=  8 IBT= 2 Dist= 1.64D+00
          JB=  3 J=  146 IAn=  8 IBT= 2 Dist= 1.65D+00
          JB=  4 J=  148 IAn=  8 IBT=12 Dist= 1.65D+00
 I=  126 IAn= 14 Valence= 8.
          JB=  1 J=    1 IAn=  8 IBT= 2 Dist= 1.61D+00
          JB=  2 J=   53 IAn=  8 IBT= 2 Dist= 1.60D+00
          JB=  3 J=  110 IAn=  8 IBT= 2 Dist= 1.62D+00
          JB=  4 J=  145 IAn=  8 IBT= 2 Dist= 1.62D+00
 I=  127 IAn= 14 Valence= 8.
          JB=  1 J=    2 IAn=  8 IBT= 2 Dist= 1.61D+00
          JB=  2 J=   52 IAn=  8 IBT= 2 Dist= 1.60D+00
          JB=  3 J=  113 IAn=  8 IBT= 2 Dist= 1.63D+00
          JB=  4 J=  145 IAn=  8 IBT= 2 Dist= 1.62D+00
 I=  128 IAn= 14 Valence= 8.
          JB=  1 J=   14 IAn=  8 IBT= 2 Dist= 1.57D+00
          JB=  2 J=   35 IAn=  8 IBT= 2 Dist= 1.55D+00
          JB=  3 J=  112 IAn=  8 IBT= 2 Dist= 1.62D+00
          JB=  4 J=  144 IAn=  8 IBT=12 Dist= 1.66D+00
 I=  129 IAn= 14 Valence= 7.
          JB=  1 J=   34 IAn=  8 IBT= 2 Dist= 1.55D+00
          JB=  2 J=  144 IAn=  8 IBT= 2 Dist= 1.65D+00
          JB=  3 J=  146 IAn=  8 IBT= 2 Dist= 1.63D+00
          JB=  4 J=  151 IAn=  8 IBT= 1 Dist= 1.73D+00
 I=  130 IAn= 14 Valence= 8.
          JB=  1 J=   24 IAn=  8 IBT= 2 Dist= 1.57D+00
          JB=  2 J=   50 IAn=  8 IBT= 2 Dist= 1.55D+00
          JB=  3 J=  114 IAn=  8 IBT= 2 Dist= 1.63D+00
          JB=  4 J=  137 IAn=  8 IBT=12 Dist= 1.65D+00
 I=  131 IAn= 14 Valence= 8.
          JB=  1 J=   49 IAn=  8 IBT= 2 Dist= 1.54D+00
          JB=  2 J=  136 IAn=  8 IBT= 2 Dist= 1.64D+00
          JB=  3 J=  137 IAn=  8 IBT= 2 Dist= 1.64D+00
          JB=  4 J=  154 IAn=  8 IBT=12 Dist= 1.65D+00
 I=  132 IAn= 14 Valence= 8.
          JB=  1 J=    8 IAn=  8 IBT= 2 Dist= 1.61D+00
          JB=  2 J=   56 IAn=  8 IBT= 2 Dist= 1.60D+00
          JB=  3 J=  115 IAn=  8 IBT= 2 Dist= 1.62D+00
          JB=  4 J=  139 IAn=  8 IBT= 2 Dist= 1.62D+00
 I=  133 IAn= 14 Valence= 8.
          JB=  1 J=   12 IAn=  8 IBT= 2 Dist= 1.61D+00
          JB=  2 J=   63 IAn=  8 IBT= 2 Dist= 1.60D+00
          JB=  3 J=  116 IAn=  8 IBT= 2 Dist= 1.63D+00
          JB=  4 J=  139 IAn=  8 IBT= 2 Dist= 1.62D+00
 I=  134 IAn= 14 Valence= 8.
          JB=  1 J=   23 IAn=  8 IBT= 2 Dist= 1.57D+00
          JB=  2 J=   59 IAn=  8 IBT= 2 Dist= 1.55D+00
          JB=  3 J=  117 IAn=  8 IBT= 2 Dist= 1.62D+00
          JB=  4 J=  138 IAn=  8 IBT=12 Dist= 1.66D+00
 I=  135 IAn= 14 Valence= 7.
          JB=  1 J=   42 IAn=  8 IBT= 2 Dist= 1.55D+00
          JB=  2 J=  136 IAn=  8 IBT= 2 Dist= 1.63D+00
          JB=  3 J=  138 IAn=  8 IBT= 2 Dist= 1.65D+00
          JB=  4 J=  155 IAn=  8 IBT= 1 Dist= 1.73D+00
 I=  136 IAn=  8 Valence= 4.
          JB=  1 J=  131 IAn= 14 IBT= 2 Dist= 1.64D+00
          JB=  2 J=  135 IAn= 14 IBT= 2 Dist= 1.63D+00
 I=  137 IAn=  8 Valence= 4.
          JB=  1 J=  130 IAn= 14 IBT=12 Dist= 1.65D+00
          JB=  2 J=  131 IAn= 14 IBT= 2 Dist= 1.64D+00
 I=  138 IAn=  8 Valence= 4.
          JB=  1 J=  134 IAn= 14 IBT=12 Dist= 1.66D+00
          JB=  2 J=  135 IAn= 14 IBT= 2 Dist= 1.65D+00
 I=  139 IAn=  8 Valence= 4.
          JB=  1 J=  132 IAn= 14 IBT= 2 Dist= 1.62D+00
          JB=  2 J=  133 IAn= 14 IBT= 2 Dist= 1.62D+00
 I=  140 IAn=  8 Valence= 4.
          JB=  1 J=  118 IAn= 14 IBT= 2 Dist= 1.62D+00
          JB=  2 J=  123 IAn= 14 IBT= 2 Dist= 1.62D+00
 I=  141 IAn=  8 Valence= 4.
          JB=  1 J=  121 IAn= 14 IBT= 2 Dist= 1.64D+00
          JB=  2 J=  122 IAn= 14 IBT=12 Dist= 1.65D+00
 I=  142 IAn=  8 Valence= 4.
          JB=  1 J=  119 IAn= 14 IBT=12 Dist= 1.66D+00
          JB=  2 J=  120 IAn= 14 IBT= 2 Dist= 1.65D+00
 I=  143 IAn=  8 Valence= 4.
          JB=  1 J=  124 IAn= 14 IBT=12 Dist= 1.65D+00
          JB=  2 J=  125 IAn= 14 IBT= 2 Dist= 1.64D+00
 I=  144 IAn=  8 Valence= 4.
          JB=  1 J=  128 IAn= 14 IBT=12 Dist= 1.66D+00
          JB=  2 J=  129 IAn= 14 IBT= 2 Dist= 1.65D+00
 I=  145 IAn=  8 Valence= 4.
          JB=  1 J=  126 IAn= 14 IBT= 2 Dist= 1.62D+00
          JB=  2 J=  127 IAn= 14 IBT= 2 Dist= 1.62D+00
 I=  146 IAn=  8 Valence= 4.
          JB=  1 J=  125 IAn= 14 IBT= 2 Dist= 1.65D+00
          JB=  2 J=  129 IAn= 14 IBT= 2 Dist= 1.63D+00
 I=  147 IAn=  8 Valence= 4.
          JB=  1 J=  120 IAn= 14 IBT= 2 Dist= 1.63D+00
          JB=  2 J=  121 IAn= 14 IBT= 2 Dist= 1.65D+00
 I=  148 IAn=  8 Valence= 3.
          JB=  1 J=  125 IAn= 14 IBT=12 Dist= 1.65D+00
          JB=  2 J=  169 IAn= 13 IBT= 1 Dist= 1.65D+00
 I=  149 IAn=  8 Valence= 3.
          JB=  1 J=  167 IAn= 14 IBT= 1 Dist= 1.76D+00
          JB=  2 J=  169 IAn= 13 IBT= 1 Dist= 1.93D+00
          JB=  3 J=  172 IAn= 44 IBT= 1 Dist= 1.98D+00
 I=  150 IAn=  8 Valence= 4.
          JB=  1 J=  167 IAn= 14 IBT= 2 Dist= 1.64D+00
          JB=  2 J=  178 IAn= 14 IBT=12 Dist= 1.66D+00
 I=  151 IAn=  8 Valence= 3.
          JB=  1 J=  129 IAn= 14 IBT= 1 Dist= 1.73D+00
          JB=  2 J=  167 IAn= 14 IBT= 2 Dist= 1.63D+00
 I=  152 IAn=  8 Valence= 3.
          JB=  1 J=  167 IAn= 14 IBT= 2 Dist= 1.59D+00
          JB=  2 J=  168 IAn= 13 IBT= 1 Dist= 1.74D+00
 I=  153 IAn=  8 Valence= 3.
          JB=  1 J=  168 IAn= 13 IBT= 1 Dist= 1.75D+00
          JB=  2 J=  173 IAn= 14 IBT= 2 Dist= 1.63D+00
 I=  154 IAn=  8 Valence= 3.
          JB=  1 J=  131 IAn= 14 IBT=12 Dist= 1.65D+00
          JB=  2 J=  168 IAn= 13 IBT= 1 Dist= 1.65D+00
 I=  155 IAn=  8 Valence= 3.
          JB=  1 J=  135 IAn= 14 IBT= 1 Dist= 1.73D+00
          JB=  2 J=  166 IAn= 14 IBT= 2 Dist= 1.62D+00
 I=  156 IAn=  8 Valence= 4.
          JB=  1 J=  166 IAn= 14 IBT= 2 Dist= 1.64D+00
          JB=  2 J=  174 IAn= 14 IBT=12 Dist= 1.66D+00
 I=  157 IAn=  8 Valence= 3.
          JB=  1 J=  166 IAn= 14 IBT= 2 Dist= 1.59D+00
          JB=  2 J=  170 IAn= 13 IBT= 1 Dist= 1.74D+00
 I=  158 IAn=  8 Valence= 3.
          JB=  1 J=  166 IAn= 14 IBT= 1 Dist= 1.75D+00
          JB=  2 J=  168 IAn= 13 IBT= 1 Dist= 1.92D+00
          JB=  3 J=  172 IAn= 44 IBT= 1 Dist= 1.97D+00
 I=  159 IAn=  8 Valence= 3.
          JB=  1 J=  170 IAn= 13 IBT= 1 Dist= 1.75D+00
          JB=  2 J=  175 IAn= 14 IBT= 2 Dist= 1.63D+00
 I=  160 IAn=  8 Valence= 3.
          JB=  1 J=  121 IAn= 14 IBT=12 Dist= 1.65D+00
          JB=  2 J=  170 IAn= 13 IBT= 1 Dist= 1.65D+00
 I=  161 IAn=  8 Valence= 3.
          JB=  1 J=  165 IAn= 14 IBT= 1 Dist= 1.76D+00
          JB=  2 J=  170 IAn= 13 IBT= 1 Dist= 1.93D+00
          JB=  3 J=  172 IAn= 44 IBT= 1 Dist= 1.98D+00
 I=  162 IAn=  8 Valence= 4.
          JB=  1 J=  165 IAn= 14 IBT= 2 Dist= 1.64D+00
          JB=  2 J=  176 IAn= 14 IBT=12 Dist= 1.66D+00
 I=  163 IAn=  8 Valence= 3.
          JB=  1 J=  120 IAn= 14 IBT= 1 Dist= 1.73D+00
          JB=  2 J=  165 IAn= 14 IBT= 2 Dist= 1.63D+00
 I=  164 IAn=  8 Valence= 3.
          JB=  1 J=  165 IAn= 14 IBT= 2 Dist= 1.59D+00
          JB=  2 J=  169 IAn= 13 IBT= 1 Dist= 1.74D+00
 I=  165 IAn= 14 Valence= 7.
          JB=  1 J=  161 IAn=  8 IBT= 1 Dist= 1.76D+00
          JB=  2 J=  162 IAn=  8 IBT= 2 Dist= 1.64D+00
          JB=  3 J=  163 IAn=  8 IBT= 2 Dist= 1.63D+00
          JB=  4 J=  164 IAn=  8 IBT= 2 Dist= 1.59D+00
 I=  166 IAn= 14 Valence= 7.
          JB=  1 J=  155 IAn=  8 IBT= 2 Dist= 1.62D+00
          JB=  2 J=  156 IAn=  8 IBT= 2 Dist= 1.64D+00
          JB=  3 J=  157 IAn=  8 IBT= 2 Dist= 1.59D+00
          JB=  4 J=  158 IAn=  8 IBT= 1 Dist= 1.75D+00
 I=  167 IAn= 14 Valence= 7.
          JB=  1 J=  149 IAn=  8 IBT= 1 Dist= 1.76D+00
          JB=  2 J=  150 IAn=  8 IBT= 2 Dist= 1.64D+00
          JB=  3 J=  151 IAn=  8 IBT= 2 Dist= 1.63D+00
          JB=  4 J=  152 IAn=  8 IBT= 2 Dist= 1.59D+00
 I=  168 IAn= 13 Valence= 4.
          JB=  1 J=  152 IAn=  8 IBT= 1 Dist= 1.74D+00
          JB=  2 J=  153 IAn=  8 IBT= 1 Dist= 1.75D+00
          JB=  3 J=  154 IAn=  8 IBT= 1 Dist= 1.65D+00
          JB=  4 J=  158 IAn=  8 IBT= 1 Dist= 1.92D+00
 I=  169 IAn= 13 Valence= 4.
          JB=  1 J=  148 IAn=  8 IBT= 1 Dist= 1.65D+00
          JB=  2 J=  149 IAn=  8 IBT= 1 Dist= 1.93D+00
          JB=  3 J=  164 IAn=  8 IBT= 1 Dist= 1.74D+00
          JB=  4 J=  171 IAn=  8 IBT= 1 Dist= 1.75D+00
 I=  170 IAn= 13 Valence= 4.
          JB=  1 J=  157 IAn=  8 IBT= 1 Dist= 1.74D+00
          JB=  2 J=  159 IAn=  8 IBT= 1 Dist= 1.75D+00
          JB=  3 J=  160 IAn=  8 IBT= 1 Dist= 1.65D+00
          JB=  4 J=  161 IAn=  8 IBT= 1 Dist= 1.93D+00
 I=  171 IAn=  8 Valence= 3.
          JB=  1 J=  169 IAn= 13 IBT= 1 Dist= 1.75D+00
          JB=  2 J=  177 IAn= 14 IBT= 2 Dist= 1.63D+00
 I=  173 IAn= 14 Valence= 7.
          JB=  1 J=  114 IAn=  8 IBT=12 Dist= 1.68D+00
          JB=  2 J=  115 IAn=  8 IBT=12 Dist= 1.68D+00
          JB=  3 J=  153 IAn=  8 IBT= 2 Dist= 1.63D+00
          JB=  4 J=  180 IAn=  8 IBT= 2 Dist= 1.64D+00
 I=  174 IAn= 14 Valence= 7.
          JB=  1 J=  116 IAn=  8 IBT=12 Dist= 1.67D+00
          JB=  2 J=  117 IAn=  8 IBT=12 Dist= 1.67D+00
          JB=  3 J=  156 IAn=  8 IBT=12 Dist= 1.66D+00
          JB=  4 J=  179 IAn=  8 IBT= 2 Dist= 1.62D+00
 I=  175 IAn= 14 Valence= 7.
          JB=  1 J=  106 IAn=  8 IBT=12 Dist= 1.68D+00
          JB=  2 J=  107 IAn=  8 IBT=12 Dist= 1.68D+00
          JB=  3 J=  159 IAn=  8 IBT= 2 Dist= 1.63D+00
          JB=  4 J=  179 IAn=  8 IBT= 2 Dist= 1.64D+00
 I=  176 IAn= 14 Valence= 7.
          JB=  1 J=  108 IAn=  8 IBT=12 Dist= 1.67D+00
          JB=  2 J=  109 IAn=  8 IBT=12 Dist= 1.66D+00
          JB=  3 J=  162 IAn=  8 IBT=12 Dist= 1.66D+00
          JB=  4 J=  181 IAn=  8 IBT= 2 Dist= 1.62D+00
 I=  177 IAn= 14 Valence= 7.
          JB=  1 J=  110 IAn=  8 IBT=12 Dist= 1.68D+00
          JB=  2 J=  111 IAn=  8 IBT=12 Dist= 1.68D+00
          JB=  3 J=  171 IAn=  8 IBT= 2 Dist= 1.63D+00
          JB=  4 J=  181 IAn=  8 IBT= 2 Dist= 1.64D+00
 I=  178 IAn= 14 Valence= 7.
          JB=  1 J=  112 IAn=  8 IBT=12 Dist= 1.67D+00
          JB=  2 J=  113 IAn=  8 IBT=12 Dist= 1.67D+00
          JB=  3 J=  150 IAn=  8 IBT=12 Dist= 1.66D+00
          JB=  4 J=  180 IAn=  8 IBT= 2 Dist= 1.62D+00
 I=  179 IAn=  8 Valence= 4.
          JB=  1 J=  174 IAn= 14 IBT= 2 Dist= 1.62D+00
          JB=  2 J=  175 IAn= 14 IBT= 2 Dist= 1.64D+00
 I=  180 IAn=  8 Valence= 4.
          JB=  1 J=  173 IAn= 14 IBT= 2 Dist= 1.64D+00
          JB=  2 J=  178 IAn= 14 IBT= 2 Dist= 1.62D+00
 I=  181 IAn=  8 Valence= 4.
          JB=  1 J=  176 IAn= 14 IBT= 2 Dist= 1.62D+00
          JB=  2 J=  177 IAn= 14 IBT= 2 Dist= 1.64D+00
 Include all MM classes

 MM sanity checks:
 All charges sum to:                0.00000000
 Charges of atoms sum to:           0.00000000
 Layer 1 (S) has     52 atoms and charge   0.00000000 sum=   0.00000000
 Layer 2 (M) adds    54 atoms and charge   0.00000000 sum=   0.00000000
 Layer 3 (R) adds    75 atoms and charge   0.00000000 sum=   0.00000000
 MMInit generated parameter data with length LenPar=       33079.

 GradGradGradGradGradGradGradGradGradGradGradGradGradGradGradGradGradGrad
 Berny optimization.
 Initialization pass.
                           ----------------------------
                           !    Initial Parameters    !
                           ! (Angstroms and Degrees)  !
 --------------------------                            --------------------------
 ! Name  Definition              Value          Derivative Info.                !
 --------------------------------------------------------------------------------
 ! X1    R(1,-1)                -1.3244         Frozen                          !
 ! Y1    R(1,-2)                -5.4737         Frozen                          !
 ! Z1    R(1,-3)                -3.0203         Frozen                          !
 ! X2    R(2,-1)                -1.2467         Frozen                          !
 ! Y2    R(2,-2)                -2.9247         Frozen                          !
 ! Z2    R(2,-3)                -5.5435         Frozen                          !
 ! X6    R(6,-1)                -1.3155         Frozen                          !
 ! Y6    R(6,-2)                 0.1714         Frozen                          !
 ! Z6    R(6,-3)                 6.2513         Frozen                          !
 ! X7    R(7,-1)                -1.3729         Frozen                          !
 ! Y7    R(7,-2)                -3.2884         Frozen                          !
 ! Z7    R(7,-3)                 5.3046         Frozen                          !
 ! X8    R(8,-1)                -1.1091         Frozen                          !
 ! Y8    R(8,-2)                 5.3762         Frozen                          !
 ! Z8    R(8,-3)                -3.2723         Frozen                          !
 ! X12   R(12,-1)               -1.1293         Frozen                          !
 ! Y12   R(12,-2)                6.287          Frozen                          !
 ! Z12   R(12,-3)                0.1976         Frozen                          !
 ! X13   R(13,-1)                1.1317         Frozen                          !
 ! Y13   R(13,-2)               -6.2227         Frozen                          !
 ! Z13   R(13,-3)               -3.5765         Frozen                          !
 ! X14   R(14,-1)                1.2131         Frozen                          !
 ! Y14   R(14,-2)               -3.5489         Frozen                          !
 ! Z14   R(14,-3)               -6.2233         Frozen                          !
 ! X16   R(16,-1)                1.0747         Frozen                          !
 ! Y16   R(16,-2)               -3.6606         Frozen                          !
 ! Z16   R(16,-3)                6.1838         Frozen                          !
 ! X19   R(19,-1)                1.135          Frozen                          !
 ! Y19   R(19,-2)               -0.0313         Frozen                          !
 ! Z19   R(19,-3)                7.1768         Frozen                          !
 ! X23   R(23,-1)                1.3533         Frozen                          !
 ! Y23   R(23,-2)                7.1387         Frozen                          !
 ! Z23   R(23,-3)                0.0793         Frozen                          !
 ! X24   R(24,-1)                1.3745         Frozen                          !
 ! Y24   R(24,-2)                6.1832         Frozen                          !
 ! Z24   R(24,-3)               -3.5604         Frozen                          !
 ! X34   R(34,-1)                6.2018         Frozen                          !
 ! Y34   R(34,-2)               -3.0897         Frozen                          !
 ! Z34   R(34,-3)               -5.4761         Frozen                          !
 ! X35   R(35,-1)                2.1807         Frozen                          !
 ! Y35   R(35,-2)               -2.2519         Frozen                          !
 ! Z35   R(35,-3)               -8.2948         Frozen                          !
 ! X38   R(38,-1)                1.9955         Frozen                          !
 ! Y38   R(38,-2)               -8.3355         Frozen                          !
 ! Z38   R(38,-3)               -2.2728         Frozen                          !
 ! X39   R(39,-1)                6.1243         Frozen                          !
 ! Y39   R(39,-2)               -5.6338         Frozen                          !
 ! Z39   R(39,-3)               -2.9579         Frozen                          !
 ! X42   R(42,-1)                6.32           Frozen                          !
 ! Y42   R(42,-2)                6.1632         Frozen                          !
 ! Z42   R(42,-3)                0.2699         Frozen                          !
 ! X44   R(44,-1)                6.1329         Frozen                          !
 ! Y44   R(44,-2)                0.0159         Frozen                          !
 ! Z44   R(44,-3)                6.3549         Frozen                          !
 ! X47   R(47,-1)                1.9467         Frozen                          !
 ! Y47   R(47,-2)               -6.1389         Frozen                          !
 ! Z47   R(47,-3)                6.0953         Frozen                          !
 ! X48   R(48,-1)                6.0754         Frozen                          !
 ! Y48   R(48,-2)               -3.4371         Frozen                          !
 ! Z48   R(48,-3)                5.4101         Frozen                          !
 ! X49   R(49,-1)                6.3401         Frozen                          !
 ! Y49   R(49,-2)                5.2541         Frozen                          !
 ! Z49   R(49,-3)               -3.1932         Frozen                          !
 ! X50   R(50,-1)                2.3191         Frozen                          !
 ! Y50   R(50,-2)                6.0921         Frozen                          !
 ! Z50   R(50,-3)               -6.0118         Frozen                          !
 ! X52   R(52,-1)               -2.8263         Frozen                          !
 ! Y52   R(52,-2)               -1.4223         Frozen                          !
 ! Z52   R(52,-3)               -4.0695         Frozen                          !
 ! X53   R(53,-1)               -2.9037         Frozen                          !
 ! Y53   R(53,-2)               -3.9665         Frozen                          !
 ! Z53   R(53,-3)               -1.5511         Frozen                          !
 ! X55   R(55,-1)               -2.8745         Frozen                          !
 ! Y55   R(55,-2)                0.7517         Frozen                          !
 ! Z55   R(55,-3)                4.2123         Frozen                          !
 ! X56   R(56,-1)               -2.7466         Frozen                          !
 ! Y56   R(56,-2)                3.3823         Frozen                          !
 ! Z56   R(56,-3)               -2.7549         Frozen                          !
 ! X59   R(59,-1)                2.2708         Frozen                          !
 ! Y59   R(59,-2)                8.2659         Frozen                          !
 ! Z59   R(59,-3)                2.2696         Frozen                          !
 ! X60   R(60,-1)               -2.9319         Frozen                          !
 ! Y60   R(60,-2)               -2.7016         Frozen                          !
 ! Z60   R(60,-3)                3.2675         Frozen                          !
 ! X62   R(62,-1)                2.0836         Frozen                          !
 ! Y62   R(62,-2)                2.1186         Frozen                          !
 ! Z62   R(62,-3)                8.3547         Frozen                          !
 ! X63   R(63,-1)               -2.7668         Frozen                          !
 ! Y63   R(63,-2)                4.2914         Frozen                          !
 ! Z63   R(63,-3)                0.7084         Frozen                          !
 ! R1    R(1,126)                1.6095         estimate D2E/DX2                !
 ! R2    R(2,127)                1.6136         estimate D2E/DX2                !
 ! R3    R(6,123)                1.6094         estimate D2E/DX2                !
 ! R4    R(7,118)                1.6139         estimate D2E/DX2                !
 ! R5    R(8,132)                1.6094         estimate D2E/DX2                !
 ! R6    R(12,133)               1.6134         estimate D2E/DX2                !
 ! R7    R(13,124)               1.5705         estimate D2E/DX2                !
 ! R8    R(14,128)               1.5713         estimate D2E/DX2                !
 ! R9    R(16,119)               1.5716         estimate D2E/DX2                !
 ! R10   R(19,122)               1.5703         estimate D2E/DX2                !
 ! R11   R(23,134)               1.571          estimate D2E/DX2                !
 ! R12   R(24,130)               1.5701         estimate D2E/DX2                !
 ! R13   R(34,129)               1.553          estimate D2E/DX2                !
 ! R14   R(35,128)               1.5521         estimate D2E/DX2                !
 ! R15   R(38,124)               1.5531         estimate D2E/DX2                !
 ! R16   R(39,125)               1.5446         estimate D2E/DX2                !
 ! R17   R(42,135)               1.5508         estimate D2E/DX2                !
 ! R18   R(44,121)               1.5452         estimate D2E/DX2                !
 ! R19   R(47,119)               1.5518         estimate D2E/DX2                !
 ! R20   R(48,120)               1.5526         estimate D2E/DX2                !
 ! R21   R(49,131)               1.5433         estimate D2E/DX2                !
 ! R22   R(50,130)               1.5545         estimate D2E/DX2                !
 ! R23   R(52,127)               1.6011         estimate D2E/DX2                !
 ! R24   R(53,126)               1.5988         estimate D2E/DX2                !
 ! R25   R(55,123)               1.5984         estimate D2E/DX2                !
 ! R26   R(56,132)               1.599          estimate D2E/DX2                !
 ! R27   R(59,134)               1.5524         estimate D2E/DX2                !
 ! R28   R(60,118)               1.6018         estimate D2E/DX2                !
 ! R29   R(62,122)               1.5539         estimate D2E/DX2                !
 ! R30   R(63,133)               1.6016         estimate D2E/DX2                !
 ! R31   R(106,123)              1.6203         estimate D2E/DX2                !
 ! R32   R(106,175)              1.6787         estimate D2E/DX2                !
 ! R33   R(107,122)              1.6316         estimate D2E/DX2                !
 ! R34   R(107,175)              1.6762         estimate D2E/DX2                !
 ! R35   R(108,118)              1.6294         estimate D2E/DX2                !
 ! R36   R(108,176)              1.6736         estimate D2E/DX2                !
 ! R37   R(109,119)              1.6214         estimate D2E/DX2                !
 ! R38   R(109,176)              1.6646         estimate D2E/DX2                !
 ! R39   R(110,126)              1.6196         estimate D2E/DX2                !
 ! R40   R(110,177)              1.6794         estimate D2E/DX2                !
 ! R41   R(111,124)              1.6299         estimate D2E/DX2                !
 ! R42   R(111,177)              1.6754         estimate D2E/DX2                !
 ! R43   R(112,128)              1.6228         estimate D2E/DX2                !
 ! R44   R(112,178)              1.6652         estimate D2E/DX2                !
 ! R45   R(113,127)              1.6291         estimate D2E/DX2                !
 ! R46   R(113,178)              1.6727         estimate D2E/DX2                !
 ! R47   R(114,130)              1.6323         estimate D2E/DX2                !
 ! R48   R(114,173)              1.677          estimate D2E/DX2                !
 ! R49   R(115,132)              1.6206         estimate D2E/DX2                !
 ! R50   R(115,173)              1.679          estimate D2E/DX2                !
 ! R51   R(116,133)              1.6295         estimate D2E/DX2                !
 ! R52   R(116,174)              1.6734         estimate D2E/DX2                !
 ! R53   R(117,134)              1.6226         estimate D2E/DX2                !
 ! R54   R(117,174)              1.6659         estimate D2E/DX2                !
 ! R55   R(118,140)              1.6245         estimate D2E/DX2                !
 ! R56   R(119,142)              1.6583         estimate D2E/DX2                !
 ! R57   R(120,142)              1.6465         estimate D2E/DX2                !
 ! R58   R(120,147)              1.6276         estimate D2E/DX2                !
 ! R59   R(120,163)              1.7293         estimate D2E/DX2                !
 ! R60   R(121,141)              1.64           estimate D2E/DX2                !
 ! R61   R(121,147)              1.645          estimate D2E/DX2                !
 ! R62   R(121,160)              1.6531         estimate D2E/DX2                !
 ! R63   R(122,141)              1.6471         estimate D2E/DX2                !
 ! R64   R(123,140)              1.6236         estimate D2E/DX2                !
 ! R65   R(124,143)              1.6471         estimate D2E/DX2                !
 ! R66   R(125,143)              1.64           estimate D2E/DX2                !
 ! R67   R(125,146)              1.6456         estimate D2E/DX2                !
 ! R68   R(125,148)              1.6526         estimate D2E/DX2                !
 ! R69   R(126,145)              1.624          estimate D2E/DX2                !
 ! R70   R(127,145)              1.6238         estimate D2E/DX2                !
 ! R71   R(128,144)              1.657          estimate D2E/DX2                !
 ! R72   R(129,144)              1.6462         estimate D2E/DX2                !
 ! R73   R(129,146)              1.6277         estimate D2E/DX2                !
 ! R74   R(129,151)              1.729          estimate D2E/DX2                !
 ! R75   R(130,137)              1.6473         estimate D2E/DX2                !
 ! R76   R(131,136)              1.6438         estimate D2E/DX2                !
 ! R77   R(131,137)              1.6399         estimate D2E/DX2                !
 ! R78   R(131,154)              1.6516         estimate D2E/DX2                !
 ! R79   R(132,139)              1.6232         estimate D2E/DX2                !
 ! R80   R(133,139)              1.6236         estimate D2E/DX2                !
 ! R81   R(134,138)              1.6569         estimate D2E/DX2                !
 ! R82   R(135,136)              1.6265         estimate D2E/DX2                !
 ! R83   R(135,138)              1.6454         estimate D2E/DX2                !
 ! R84   R(135,155)              1.7267         estimate D2E/DX2                !
 ! R85   R(148,169)              1.6487         estimate D2E/DX2                !
 ! R86   R(149,167)              1.7591         estimate D2E/DX2                !
 ! R87   R(149,169)              1.9261         estimate D2E/DX2                !
 ! R88   R(149,172)              1.9826         estimate D2E/DX2                !
 ! R89   R(150,167)              1.6361         estimate D2E/DX2                !
 ! R90   R(150,178)              1.6571         estimate D2E/DX2                !
 ! R91   R(151,167)              1.6257         estimate D2E/DX2                !
 ! R92   R(152,167)              1.5935         estimate D2E/DX2                !
 ! R93   R(152,168)              1.7414         estimate D2E/DX2                !
 ! R94   R(153,168)              1.7478         estimate D2E/DX2                !
 ! R95   R(153,173)              1.6323         estimate D2E/DX2                !
 ! R96   R(154,168)              1.6461         estimate D2E/DX2                !
 ! R97   R(155,166)              1.623          estimate D2E/DX2                !
 ! R98   R(156,166)              1.6392         estimate D2E/DX2                !
 ! R99   R(156,174)              1.6598         estimate D2E/DX2                !
 ! R100  R(157,166)              1.5926         estimate D2E/DX2                !
 ! R101  R(157,170)              1.7442         estimate D2E/DX2                !
 ! R102  R(158,166)              1.755          estimate D2E/DX2                !
 ! R103  R(158,168)              1.9214         estimate D2E/DX2                !
 ! R104  R(158,172)              1.9718         estimate D2E/DX2                !
 ! R105  R(159,170)              1.745          estimate D2E/DX2                !
 ! R106  R(159,175)              1.6293         estimate D2E/DX2                !
 ! R107  R(160,170)              1.6483         estimate D2E/DX2                !
 ! R108  R(161,165)              1.7557         estimate D2E/DX2                !
 ! R109  R(161,170)              1.9292         estimate D2E/DX2                !
 ! R110  R(161,172)              1.9767         estimate D2E/DX2                !
 ! R111  R(162,165)              1.6374         estimate D2E/DX2                !
 ! R112  R(162,176)              1.6557         estimate D2E/DX2                !
 ! R113  R(163,165)              1.6258         estimate D2E/DX2                !
 ! R114  R(164,165)              1.5917         estimate D2E/DX2                !
 ! R115  R(164,169)              1.7411         estimate D2E/DX2                !
 ! R116  R(169,171)              1.7459         estimate D2E/DX2                !
 ! R117  R(171,177)              1.6286         estimate D2E/DX2                !
 ! R118  R(173,180)              1.6429         estimate D2E/DX2                !
 ! R119  R(174,179)              1.6203         estimate D2E/DX2                !
 ! R120  R(175,179)              1.6439         estimate D2E/DX2                !
 ! R121  R(176,181)              1.6196         estimate D2E/DX2                !
 ! R122  R(177,181)              1.6437         estimate D2E/DX2                !
 ! R123  R(178,180)              1.6202         estimate D2E/DX2                !
 ! A1    A(123,106,175)        141.5696         estimate D2E/DX2                !
 ! A2    A(122,107,175)        148.2492         estimate D2E/DX2                !
 ! A3    A(118,108,176)        146.5328         estimate D2E/DX2                !
 ! A4    A(119,109,176)        143.9139         estimate D2E/DX2                !
 ! A5    A(126,110,177)        142.0363         estimate D2E/DX2                !
 ! A6    A(124,111,177)        148.1163         estimate D2E/DX2                !
 ! A7    A(128,112,178)        144.1626         estimate D2E/DX2                !
 ! A8    A(127,113,178)        146.0841         estimate D2E/DX2                !
 ! A9    A(130,114,173)        148.4157         estimate D2E/DX2                !
 ! A10   A(132,115,173)        142.1554         estimate D2E/DX2                !
 ! A11   A(133,116,174)        146.4327         estimate D2E/DX2                !
 ! A12   A(134,117,174)        144.514          estimate D2E/DX2                !
 ! A13   A(7,118,60)           109.8367         estimate D2E/DX2                !
 ! A14   A(7,118,108)          110.0901         estimate D2E/DX2                !
 ! A15   A(7,118,140)          108.7431         estimate D2E/DX2                !
 ! A16   A(60,118,108)         108.9072         estimate D2E/DX2                !
 ! A17   A(60,118,140)         108.6099         estimate D2E/DX2                !
 ! A18   A(108,118,140)        110.6335         estimate D2E/DX2                !
 ! A19   A(16,119,47)          114.6239         estimate D2E/DX2                !
 ! A20   A(16,119,109)         108.514          estimate D2E/DX2                !
 ! A21   A(16,119,142)         108.5587         estimate D2E/DX2                !
 ! A22   A(47,119,109)         108.5139         estimate D2E/DX2                !
 ! A23   A(47,119,142)         107.815          estimate D2E/DX2                !
 ! A24   A(109,119,142)        108.6822         estimate D2E/DX2                !
 ! A25   A(48,120,142)         111.4145         estimate D2E/DX2                !
 ! A26   A(48,120,147)         107.1797         estimate D2E/DX2                !
 ! A27   A(48,120,163)         105.5763         estimate D2E/DX2                !
 ! A28   A(142,120,147)        105.5071         estimate D2E/DX2                !
 ! A29   A(142,120,163)        113.9805         estimate D2E/DX2                !
 ! A30   A(147,120,163)        113.089          estimate D2E/DX2                !
 ! A31   A(44,121,141)         111.9386         estimate D2E/DX2                !
 ! A32   A(44,121,147)         108.9847         estimate D2E/DX2                !
 ! A33   A(44,121,160)         105.7547         estimate D2E/DX2                !
 ! A34   A(141,121,147)        106.4222         estimate D2E/DX2                !
 ! A35   A(141,121,160)        111.7326         estimate D2E/DX2                !
 ! A36   A(147,121,160)        112.0704         estimate D2E/DX2                !
 ! A37   A(19,122,62)          114.5715         estimate D2E/DX2                !
 ! A38   A(19,122,107)         107.5272         estimate D2E/DX2                !
 ! A39   A(19,122,141)         108.0859         estimate D2E/DX2                !
 ! A40   A(62,122,107)         110.6451         estimate D2E/DX2                !
 ! A41   A(62,122,141)         105.1428         estimate D2E/DX2                !
 ! A42   A(107,122,141)        110.8547         estimate D2E/DX2                !
 ! A43   A(6,123,55)           110.2357         estimate D2E/DX2                !
 ! A44   A(6,123,106)          108.6602         estimate D2E/DX2                !
 ! A45   A(6,123,140)          107.8554         estimate D2E/DX2                !
 ! A46   A(55,123,106)         107.6917         estimate D2E/DX2                !
 ! A47   A(55,123,140)         107.6563         estimate D2E/DX2                !
 ! A48   A(106,123,140)        114.7163         estimate D2E/DX2                !
 ! A49   A(13,124,38)          114.6027         estimate D2E/DX2                !
 ! A50   A(13,124,111)         107.5934         estimate D2E/DX2                !
 ! A51   A(13,124,143)         108.139          estimate D2E/DX2                !
 ! A52   A(38,124,111)         110.4444         estimate D2E/DX2                !
 ! A53   A(38,124,143)         105.2257         estimate D2E/DX2                !
 ! A54   A(111,124,143)        110.8239         estimate D2E/DX2                !
 ! A55   A(39,125,143)         111.931          estimate D2E/DX2                !
 ! A56   A(39,125,146)         108.8939         estimate D2E/DX2                !
 ! A57   A(39,125,148)         105.6341         estimate D2E/DX2                !
 ! A58   A(143,125,146)        106.3247         estimate D2E/DX2                !
 ! A59   A(143,125,148)        112.0274         estimate D2E/DX2                !
 ! A60   A(146,125,148)        112.0867         estimate D2E/DX2                !
 ! A61   A(1,126,53)           110.2101         estimate D2E/DX2                !
 ! A62   A(1,126,110)          108.6885         estimate D2E/DX2                !
 ! A63   A(1,126,145)          107.9072         estimate D2E/DX2                !
 ! A64   A(53,126,110)         107.8145         estimate D2E/DX2                !
 ! A65   A(53,126,145)         107.6897         estimate D2E/DX2                !
 ! A66   A(110,126,145)        114.5065         estimate D2E/DX2                !
 ! A67   A(2,127,52)           109.8839         estimate D2E/DX2                !
 ! A68   A(2,127,113)          110.0347         estimate D2E/DX2                !
 ! A69   A(2,127,145)          108.7088         estimate D2E/DX2                !
 ! A70   A(52,127,113)         108.7452         estimate D2E/DX2                !
 ! A71   A(52,127,145)         108.5861         estimate D2E/DX2                !
 ! A72   A(113,127,145)        110.8632         estimate D2E/DX2                !
 ! A73   A(14,128,35)          114.6151         estimate D2E/DX2                !
 ! A74   A(14,128,112)         108.4875         estimate D2E/DX2                !
 ! A75   A(14,128,144)         108.5411         estimate D2E/DX2                !
 ! A76   A(35,128,112)         108.7445         estimate D2E/DX2                !
 ! A77   A(35,128,144)         107.724          estimate D2E/DX2                !
 ! A78   A(112,128,144)        108.5883         estimate D2E/DX2                !
 ! A79   A(34,129,144)         111.3666         estimate D2E/DX2                !
 ! A80   A(34,129,146)         107.2508         estimate D2E/DX2                !
 ! A81   A(34,129,151)         105.7709         estimate D2E/DX2                !
 ! A82   A(144,129,146)        105.5            estimate D2E/DX2                !
 ! A83   A(144,129,151)        113.6015         estimate D2E/DX2                !
 ! A84   A(146,129,151)        113.2774         estimate D2E/DX2                !
 ! A85   A(24,130,50)          114.5483         estimate D2E/DX2                !
 ! A86   A(24,130,114)         107.4836         estimate D2E/DX2                !
 ! A87   A(24,130,137)         108.1281         estimate D2E/DX2                !
 ! A88   A(50,130,114)         110.8637         estimate D2E/DX2                !
 ! A89   A(50,130,137)         105.1425         estimate D2E/DX2                !
 ! A90   A(114,130,137)        110.6464         estimate D2E/DX2                !
 ! A91   A(49,131,136)         108.9752         estimate D2E/DX2                !
 ! A92   A(49,131,137)         111.9764         estimate D2E/DX2                !
 ! A93   A(49,131,154)         105.3722         estimate D2E/DX2                !
 ! A94   A(136,131,137)        106.3964         estimate D2E/DX2                !
 ! A95   A(136,131,154)        112.1406         estimate D2E/DX2                !
 ! A96   A(137,131,154)        112.0424         estimate D2E/DX2                !
 ! A97   A(8,132,56)           110.2043         estimate D2E/DX2                !
 ! A98   A(8,132,115)          108.806          estimate D2E/DX2                !
 ! A99   A(8,132,139)          107.9338         estimate D2E/DX2                !
 ! A100  A(56,132,115)         107.99           estimate D2E/DX2                !
 ! A101  A(56,132,139)         107.7284         estimate D2E/DX2                !
 ! A102  A(115,132,139)        114.1569         estimate D2E/DX2                !
 ! A103  A(12,133,63)          109.8695         estimate D2E/DX2                !
 ! A104  A(12,133,116)         110.0989         estimate D2E/DX2                !
 ! A105  A(12,133,139)         108.7203         estimate D2E/DX2                !
 ! A106  A(63,133,116)         109.0136         estimate D2E/DX2                !
 ! A107  A(63,133,139)         108.588          estimate D2E/DX2                !
 ! A108  A(116,133,139)        110.5296         estimate D2E/DX2                !
 ! A109  A(23,134,59)          114.6216         estimate D2E/DX2                !
 ! A110  A(23,134,117)         108.4328         estimate D2E/DX2                !
 ! A111  A(23,134,138)         108.5864         estimate D2E/DX2                !
 ! A112  A(59,134,117)         108.9661         estimate D2E/DX2                !
 ! A113  A(59,134,138)         107.6773         estimate D2E/DX2                !
 ! A114  A(117,134,138)        108.402          estimate D2E/DX2                !
 ! A115  A(42,135,136)         107.3051         estimate D2E/DX2                !
 ! A116  A(42,135,138)         111.4064         estimate D2E/DX2                !
 ! A117  A(42,135,155)         105.2874         estimate D2E/DX2                !
 ! A118  A(136,135,138)        105.4478         estimate D2E/DX2                !
 ! A119  A(136,135,155)        113.4816         estimate D2E/DX2                !
 ! A120  A(138,135,155)        113.8421         estimate D2E/DX2                !
 ! A121  A(131,136,135)        128.8574         estimate D2E/DX2                !
 ! A122  A(130,137,131)        139.8253         estimate D2E/DX2                !
 ! A123  A(134,138,135)        147.6904         estimate D2E/DX2                !
 ! A124  A(132,139,133)        144.6862         estimate D2E/DX2                !
 ! A125  A(118,140,123)        144.7028         estimate D2E/DX2                !
 ! A126  A(121,141,122)        139.937          estimate D2E/DX2                !
 ! A127  A(119,142,120)        148.226          estimate D2E/DX2                !
 ! A128  A(124,143,125)        140.2025         estimate D2E/DX2                !
 ! A129  A(128,144,129)        147.9071         estimate D2E/DX2                !
 ! A130  A(126,145,127)        144.6964         estimate D2E/DX2                !
 ! A131  A(125,146,129)        127.7968         estimate D2E/DX2                !
 ! A132  A(120,147,121)        128.1937         estimate D2E/DX2                !
 ! A133  A(125,148,169)        156.3303         estimate D2E/DX2                !
 ! A134  A(167,149,169)        121.8365         estimate D2E/DX2                !
 ! A135  A(167,149,172)        118.4438         estimate D2E/DX2                !
 ! A136  A(169,149,172)        115.8983         estimate D2E/DX2                !
 ! A137  A(167,150,178)        137.2663         estimate D2E/DX2                !
 ! A138  A(129,151,167)        145.5278         estimate D2E/DX2                !
 ! A139  A(167,152,168)        127.6541         estimate D2E/DX2                !
 ! A140  A(168,153,173)        123.4349         estimate D2E/DX2                !
 ! A141  A(131,154,168)        156.089          estimate D2E/DX2                !
 ! A142  A(135,155,166)        145.378          estimate D2E/DX2                !
 ! A143  A(166,156,174)        136.679          estimate D2E/DX2                !
 ! A144  A(166,157,170)        128.1404         estimate D2E/DX2                !
 ! A145  A(166,158,168)        123.5465         estimate D2E/DX2                !
 ! A146  A(166,158,172)        117.2772         estimate D2E/DX2                !
 ! A147  A(168,158,172)        113.1353         estimate D2E/DX2                !
 ! A148  A(170,159,175)        123.732          estimate D2E/DX2                !
 ! A149  A(121,160,170)        155.9522         estimate D2E/DX2                !
 ! A150  A(165,161,170)        122.3485         estimate D2E/DX2                !
 ! A151  A(165,161,172)        121.3626         estimate D2E/DX2                !
 ! A152  A(170,161,172)        112.9956         estimate D2E/DX2                !
 ! A153  A(165,162,176)        138.4336         estimate D2E/DX2                !
 ! A154  A(120,163,165)        144.8641         estimate D2E/DX2                !
 ! A155  A(165,164,169)        126.2453         estimate D2E/DX2                !
 ! A156  A(161,165,162)         99.9629         estimate D2E/DX2                !
 ! A157  A(161,165,163)        108.6298         estimate D2E/DX2                !
 ! A158  A(161,165,164)        104.9292         estimate D2E/DX2                !
 ! A159  A(162,165,163)        114.2267         estimate D2E/DX2                !
 ! A160  A(162,165,164)        115.6873         estimate D2E/DX2                !
 ! A161  A(163,165,164)        111.9881         estimate D2E/DX2                !
 ! A162  A(155,166,156)        114.8092         estimate D2E/DX2                !
 ! A163  A(155,166,157)        112.3739         estimate D2E/DX2                !
 ! A164  A(155,166,158)        108.2239         estimate D2E/DX2                !
 ! A165  A(156,166,157)        114.8253         estimate D2E/DX2                !
 ! A166  A(156,166,158)        101.5977         estimate D2E/DX2                !
[...]
 ,-0.00218839,0.00168206,-0.00192001,-0.00361009,0.00345429,0.00114403,
 -0.00179057,0.00191387,0.00002100,0.00068552,0.00022407,0.00028774,0.0
 0001401,0.00120719,0.00123678,0.00253370,0.00771314,0.02691006,-0.0151
 2798,0.03099595,0.00394497,0.00013549,0.00159046,0.00147239,0.00900794
 ,0.00314052,-0.01542989,0.01246323,-0.02507525,-0.00287471,0.00078445,
 -0.00142500,0.00010627,0.00182531,-0.00122200,-0.00081210,0.00074715,-
 0.00094171,-0.00025453,0.00125329,-0.00064010,-0.00099402,0.00433888,-
 0.00213563,-0.00028186,0.00088197,0.00002817,-0.00009797,0.00044177,-0
 .00012327,0.00049348,0.00155688,0.00126768,0.00027735,0.00047978,0.000
 49111,0.00020637,0.00018387,0.00060164,0.00021233,0.00059959,0.0014781
 3,-0.00036664,-0.00095527,-0.00143923,0.00110479,-0.00315922,0.0009264
 9,-0.02263755,-0.00667922,-0.01261224,0.01275488,-0.00814259,0.0036131
 5,-0.00106729,-0.00105670,-0.00256374,0.00021798,-0.00180104,0.0000098
 0,0.00035546,-0.00018262,0.00147129,0.00033825,-0.00790506,-0.00373587
 ,0.02478954,-0.16834364,-0.10316977,0.00126427,-0.00122684,0.00278731,
 -0.00013147,-0.00181568,0.00086131,0.00025990,-0.00092289,-0.00182368,
 -0.00089998,0.00067588,-0.00291456,-0.04775003,-0.29202044,0.02337845,
 -0.00006889,0.00125147,-0.00131702,0.01860313,0.53901990,0.,0.,0.,0.,0
 .,0.,0.,0.,0.,0.,0.,0.,0.,0.,0.,0.,0.,0.,0.,0.,0.,0.,0.,0.,0.,0.,0.,0.
 ,0.,0.,0.,0.,0.,0.,0.,0.,0.,0.,0.,0.,0.,0.,0.,0.,0.,0.,0.,0.,0.,0.,0.,
 0.,0.,0.,0.,0.,0.,0.,0.,0.,0.,0.,0.,0.,0.,0.,0.,0.,0.,0.,0.,0.,0.,0.,0
 .,0.,0.,0.,0.,0.,0.,0.,0.,0.,0.,0.,0.,0.,0.,0.,0.,0.,0.,0.,0.,0.,0.,0.
 ,0.,0.,0.,0.,0.,0.,0.,0.,0.,0.,0.,0.,0.,0.,0.,0.,0.,0.,0.,0.,0.,0.,0.,
 0.,0.,0.,0.,0.,0.,0.,0.,0.,0.,0.,0.,0.,0.,0.,0.,0.,0.,0.,0.,0.,0.,0.,0
 .,0.,0.,0.,0.,0.,0.,0.,0.,0.,0.,0.,0.,0.,0.,0.,0.,0.,0.,0.,0.,0.,0.,0.
 ,0.,0.,0.,0.,0.,0.,0.,0.,0.,0.,0.,0.,0.,0.,0.,0.,0.,0.,0.,0.,0.,0.,0.,
 0.,0.,0.,0.,0.,0.,0.,0.,0.,0.,0.,0.,0.,0.,0.,0.,0.,0.,0.,0.,0.,0.,0.,0
 .,0.,0.,0.,0.,0.,0.,0.,0.,0.,0.,0.,0.,0.,0.,0.,0.,0.,0.,0.,0.,0.,0.,0.
 ,0.,0.,0.,0.,0.,0.,0.,0.,0.,0.,0.,0.,0.,0.,0.,0.,0.,0.,0.,0.,0.,0.,0.,
 0.,0.,0.,0.,0.,0.,0.,0.,0.,0.,0.,0.,0.,0.,0.,0.,0.,0.,0.,0.,0.,0.,0.,0
 .,0.,0.,0.,0.,0.,0.,0.,0.,0.,0.,0.,0.,0.,0.,0.,0.,0.,0.,0.,0.,0.,0.,0.
 ,0.,0.,0.,0.,0.,0.,0.,0.00034409,0.00029767,-0.00025388,-0.00007858,0.
 00015501,-0.00057306,-0.00003713,0.00021525,0.00005872,0.00003640,0.00
 013816,-0.00001838,0.00056856,0.00005912,0.00060099,-0.00007237,0.0005
 0451,0.00056553,0.00021632,-0.01741555,0.00077316,-0.00433777,-0.00018
 845,0.00785070,-0.00273500,-0.00807763,0.00635977,0.00788555,-0.009428
 47,-0.00303454,-0.00020610,-0.00012451,-0.00061149,-0.00006483,-0.0003
 4307,-0.00020935,-0.00007548,-0.00040058,-0.00002580,-0.00009221,-0.00
 012212,0.00002103,0.00002463,-0.00026563,0.00009872,0.00010658,-0.0002
 5132,0.00025157,0.00007453,-0.00019305,0.00031508,-0.00019458,-0.00039
 859,0.00016081,0.00010462,-0.00007029,-0.00051743,-0.00010370,0.000080
 42,-0.00128906,0.00000021,0.00056416,-0.00115993,0.00142222,0.00206652
 ,-0.00219494,-0.00276970,0.00459483,0.00129914,-0.00157580,0.00060199,
 -0.00310146,0.00079220,0.00359672,-0.00094964,0.00107114,0.00126054,-0
 .00052064,-0.00342789,0.00304676,0.00173479,-0.00057418,0.00068891,0.0
 0145891,0.00001337,0.00038135,0.00015072,0.00052018,0.00038285,0.00047
 791,-0.00045210,-0.00018516,-0.00024087,-0.00027760,-0.00027666,0.0004
 2967,-0.00009392,-0.00014504,-0.00013581,0.00098440,-0.00089833,-0.001
 22818,0.00008472,0.00040595,-0.00001797,-0.00006985,0.00008335,-0.0000
 4067,0.00010137,0.00012548,-0.00002832,-0.00004778,-0.00010639,0.00025
 059,0.00276175,-0.00134990,0.00182782,-0.00011780,-0.00083544,0.001545
 60,0.00022199,-0.00079348,0.00110694,-0.00003048,0.00019856,0.00001366
 ,-0.00029912,0.00077665,0.00073957,-0.00045400,0.00125455,0.00048451,-
 0.00185877,0.01404847,0.00411430,-0.00128173,0.00178495,0.00251141,-0.
 00234195,0.00237116,0.00142231,-0.01342140,-0.01186154,-0.02561160,-0.
 00291121,-0.00193761,0.00084138,-0.00047345,-0.00044783,-0.00030031,0.
 00004126,-0.00038047,-0.00120666,-0.00025241,0.00030639,-0.00082165,-0
 .00134918,0.00149465,-0.00259732,0.00018257,0.00001560,-0.00045995,-0.
 00020214,0.00020005,-0.00054109,-0.00016683,0.00089257,-0.00071787,0.0
 0045837,0.00058194,-0.00010770,-0.00017224,0.00032037,-0.00039339,-0.0
 0005473,0.00059562,0.00016502,-0.00009292,-0.00145408,0.00032036,0.001
 11551,0.00046118,0.00171452,0.00430362,-0.00272229,-0.00250870,0.01275
 878,-0.00162770,0.00082137,0.00011004,-0.00173446,-0.00022617,0.000101
 28,-0.00028315,0.00088032,0.00046050,0.00081601,0.00001972,0.00033368,
 -0.00331737,0.00173080,0.01911564,-0.10858461,-0.12458234,-0.00003954,
 0.00045369,0.00165277,-0.00034133,-0.00030263,0.00081618,-0.00022591,-
 0.00071832,-0.00016626,-0.00065986,-0.00085395,-0.00062780,0.00591046,
 0.03298929,-0.04453666,0.00009753,0.00028479,-0.00070010,-0.01887608,0
 .10027329,0.17578653,0.,0.,0.,0.,0.,0.,0.,0.,0.,0.,0.,0.,0.,0.,0.,0.,0
 .,0.,0.,0.,0.,0.,0.,0.,0.,0.,0.,0.,0.,0.,0.,0.,0.,0.,0.,0.,0.,0.,0.,0.
 ,0.,0.,0.,0.,0.,0.,0.,0.,0.,0.,0.,0.,0.,0.,0.,0.,0.,0.,0.,0.,0.,0.,0.,
 0.,0.,0.,0.,0.,0.,0.,0.,0.,0.,0.,0.,0.,0.,0.,0.,0.,0.,0.,0.,0.,0.,0.,0
 .,0.,0.,0.,0.,0.,0.,0.,0.,0.,0.,0.,0.,0.,0.,0.,0.,0.,0.,0.,0.,0.,0.,0.
 ,0.,0.,0.,0.,0.,0.,0.,0.,0.,0.,0.,0.,0.,0.,0.,0.,0.,0.,0.,0.,0.,0.,0.,
 0.,0.,0.,0.,0.,0.,0.,0.,0.,0.,0.,0.,0.,0.,0.,0.,0.,0.,0.,0.,0.,0.,0.,0
 .,0.,0.,0.,0.,0.,0.,0.,0.,0.,0.,0.,0.,0.,0.,0.,0.,0.,0.,0.,0.,0.,0.,0.
 ,0.,0.,0.,0.,0.,0.,0.,0.,0.,0.,0.,0.,0.,0.,0.,0.,0.,0.,0.,0.,0.,0.,0.,
 0.,0.,0.,0.,0.,0.,0.,0.,0.,0.,0.,0.,0.,0.,0.,0.,0.,0.,0.,0.,0.,0.,0.,0
 .,0.,0.,0.,0.,0.,0.,0.,0.,0.,0.,0.,0.,0.,0.,0.,0.,0.,0.,0.,0.,0.,0.,0.
 ,0.,0.,0.,0.,0.,0.,0.,0.,0.,0.,0.,0.,0.,0.,0.,0.,0.,0.,0.,0.,0.,0.,0.,
 0.,0.,0.,0.,0.,0.,0.,0.,0.,0.,0.,0.,0.,0.,0.,0.,0.,0.,0.,0.,0.,0.,0.,0
 .,0.,0.,0.,0.,0.,0.,0.,0.,0.,0.,0.,0.,0.,0.,0.,0.,0.,0.,0.00090100,0.0
 0051267,-0.00011397,0.00023498,-0.00004501,0.00002634,0.00242378,0.008
 00438,0.01165492,0.00736896,-0.00148095,-0.00237841,0.00203987,0.00138
 455,-0.01411619,0.00682581,0.00044131,0.00416044,0.00022559,-0.0000533
 3,0.00001301,0.00089382,0.00050802,-0.00016560,0.00008789,-0.00002175,
 0.00004977,0.00034042,-0.00007346,-0.00007236,0.00034114,-0.00001510,0
 .00010700,0.00009395,-0.00003325,-0.00003621,0.00121700,-0.00196210,-0
 .00150495,-0.00150306,-0.00029697,0.00082735,-0.00013011,0.00037922,0.
 00179762,-0.00016545,0.00064004,0.00039206,-0.00043020,0.00016086,0.00
 000871,-0.00027951,-0.00124666,-0.00034517,-0.00116063,-0.00079671,-0.
 00079645,0.00001064,-0.00048095,-0.00171621,0.00086096,-0.00088347,0.0
 0206724,-0.00032844,-0.00086091,0.00084934,-0.00043235,0.00011680,-0.0
 0012577,-0.00015394,0.00043968,-0.00062413,-0.00013773,0.00002216,-0.0
 0005961,-0.00004546,0.00020010,-0.00012164,-0.00015969,0.00001220,0.00
 006626,-0.00017251,-0.00001670,-0.00005275,-0.00015056,0.00006351,0.00
 004073,-0.00006923,0.00028333,-0.00001927,0.00002251,-0.00005263,0.000
 02900,0.00014220,-0.00004846,0.00009473,0.00015785,-0.00010367,-0.0000
 6100,0.00009051,0.00003527,-0.00001369,0.00015803,0.00150998,0.0006112
 1,0.00048247,-0.00026267,-0.00022120,0.00074129,0.00008533,-0.00081153
 ,0.00054908,0.00035780,0.00058141,0.00047526,-0.00012305,0.00034308,0.
 00024197,0.00094881,-0.00119537,0.00008609,-0.00047890,0.00069753,0.00
 012853,-0.00074238,-0.00044164,-0.00060120,0.00060754,0.00164770,-0.00
 005943,-0.00095059,0.00059335,0.00070469,-0.00023568,0.00057177,0.0000
 3526,-0.00014379,0.00033394,0.00007178,-0.00029431,0.00029770,0.000361
 70,-0.00014738,0.00030475,-0.00004274,-0.00029988,0.00013772,-0.000080
 28,-0.00044241,0.00005261,0.00045342,-0.00028718,-0.00022860,0.0001077
 1,-0.00027399,-0.00015285,-0.00015170,-0.00103494,-0.00001269,0.000669
 56,-0.00043470,-0.00036655,0.00004496,-0.00026600,-0.00024901,0.000100
 95,-0.00176457,0.00034926,0.00511256,-0.01059045,-0.00836850,-0.000733
 71,-0.00032003,-0.00167067,-0.00123405,-0.00286757,0.00039611,0.003347
 20,0.00496216,0.00173949,-0.00027988,0.00088214,0.00049374,-0.00041233
 ,0.00054384,-0.00096048,-0.00020180,0.00042246,-0.00053084,0.00171227,
 0.00236844,-0.00343153,-0.00035164,0.00077791,0.00043847,0.00810306,-0
 .00547802,0.01116502,-0.00046122,0.00191864,-0.00049810,-0.00052991,0.
 00005967,-0.00024337,-0.00057379,0.00014423,0.00020654,-0.00122053,-0.
 00000867,0.00029046,-0.04613733,0.02283274,0.02822499,-0.04360218,0.00
 490864,-0.02848683,-0.00123662,-0.00008476,-0.00025453,0.00020687,-0.0
 0000983,-0.00015005,0.00020348,0.00001853,0.00012488,0.05385815,0.,0.,
 0.,0.,0.,0.,0.,0.,0.,0.,0.,0.,0.,0.,0.,0.,0.,0.,0.,0.,0.,0.,0.,0.,0.,0
 .,0.,0.,0.,0.,0.,0.,0.,0.,0.,0.,0.,0.,0.,0.,0.,0.,0.,0.,0.,0.,0.,0.,0.
 ,0.,0.,0.,0.,0.,0.,0.,0.,0.,0.,0.,0.,0.,0.,0.,0.,0.,0.,0.,0.,0.,0.,0.,
 0.,0.,0.,0.,0.,0.,0.,0.,0.,0.,0.,0.,0.,0.,0.,0.,0.,0.,0.,0.,0.,0.,0.,0
 .,0.,0.,0.,0.,0.,0.,0.,0.,0.,0.,0.,0.,0.,0.,0.,0.,0.,0.,0.,0.,0.,0.,0.
 ,0.,0.,0.,0.,0.,0.,0.,0.,0.,0.,0.,0.,0.,0.,0.,0.,0.,0.,0.,0.,0.,0.,0.,
 0.,0.,0.,0.,0.,0.,0.,0.,0.,0.,0.,0.,0.,0.,0.,0.,0.,0.,0.,0.,0.,0.,0.,0
 .,0.,0.,0.,0.,0.,0.,0.,0.,0.,0.,0.,0.,0.,0.,0.,0.,0.,0.,0.,0.,0.,0.,0.
 ,0.,0.,0.,0.,0.,0.,0.,0.,0.,0.,0.,0.,0.,0.,0.,0.,0.,0.,0.,0.,0.,0.,0.,
 0.,0.,0.,0.,0.,0.,0.,0.,0.,0.,0.,0.,0.,0.,0.,0.,0.,0.,0.,0.,0.,0.,0.,0
 .,0.,0.,0.,0.,0.,0.,0.,0.,0.,0.,0.,0.,0.,0.,0.,0.,0.,0.,0.,0.,0.,0.,0.
 ,0.,0.,0.,0.,0.,0.,0.,0.,0.,0.,0.,0.,0.,0.,0.,0.,0.,0.,0.,0.,0.,0.,0.,
 0.,0.,0.,0.,0.,0.,0.,0.,0.,0.,0.,0.,0.,0.,0.,0.,0.,0.,0.,0.,0.,0.,0.,0
 .,0.,0.,0.,0.,0.,0.,0.,0.,0.,-0.00010829,-0.00041511,-0.00011880,-0.00
 006409,-0.00016443,-0.00039259,0.00644405,-0.00303889,-0.01023819,-0.0
 0250827,0.00642636,-0.00590719,-0.00363208,0.00701581,-0.00059296,0.00
 107345,0.00137704,-0.01552837,-0.00005968,0.00051593,0.00047507,0.0005
 3367,0.00052298,0.00009070,0.00002625,-0.00005392,0.00014161,-0.000011
 41,0.00003046,0.00017632,0.00028587,-0.00024883,0.00026383,-0.00008136
 ,-0.00050420,0.00013722,-0.00316831,0.00132641,0.00278012,0.00047594,-
 0.00074399,0.00269713,0.00080648,-0.00081714,0.00112340,0.00041568,0.0
 0023480,0.00049057,0.00001834,0.00007520,0.00038823,-0.00045475,0.0012
 1852,0.00060311,-0.00246122,0.00129788,0.00415329,-0.00130342,-0.00254
 345,0.00069471,0.00103505,-0.00217766,0.00173025,-0.00008914,-0.001023
 38,0.00040667,0.00008681,-0.00049772,-0.00009067,-0.00018464,-0.001454
 52,-0.00008456,-0.00007030,0.00004173,-0.00010759,0.00006124,0.0001141
 2,-0.00024674,-0.00006917,-0.00000124,-0.00036472,-0.00018260,0.000180
 47,-0.00034450,0.00006773,0.00029151,-0.00016457,0.00010085,0.00032126
 ,-0.00024242,-0.00003610,-0.00000138,0.00020219,0.00008288,-0.00002364
 ,0.00011435,-0.00004990,-0.00006078,0.00006880,0.00007651,-0.00003824,
 0.00035781,0.00082345,-0.00097240,-0.00078205,-0.00008834,-0.00008416,
 -0.00011973,0.00001801,0.00066926,-0.00026967,0.00245089,0.00147584,-0
 .00112654,-0.00003020,0.00026048,-0.00007881,0.00001260,0.00141178,-0.
 00067593,0.00023399,0.00118937,-0.00079687,-0.00038571,-0.00005026,-0.
 00013744,-0.00096586,0.00233895,0.00100870,-0.00061062,-0.00027801,0.0
 0142108,0.00049746,-0.00013847,0.00087728,-0.00042829,0.00097694,0.000
 94136,-0.00010268,-0.00011791,0.00050746,0.00029703,-0.00015725,0.0005
 2849,-0.00013418,-0.00030220,0.00025698,-0.00026640,-0.00068382,0.0002
 0834,0.00021877,-0.00040644,-0.00002802,-0.00018003,-0.00057682,0.0000
 9695,-0.00027046,-0.00081580,0.00058497,0.00013915,-0.00103856,-0.0003
 2334,-0.00041298,-0.00024258,-0.00055710,-0.00110666,-0.00273260,0.001
 96084,-0.01597170,-0.01925060,-0.01072008,-0.00303338,0.00058691,-0.00
 187172,-0.00268987,0.00113119,0.00236682,0.01506446,0.00224343,-0.0029
 4821,0.00016952,0.00114050,0.00009679,0.00036560,-0.00018313,-0.002435
 80,-0.00003268,0.00030625,-0.00098305,0.00450963,-0.00278744,-0.001578
 39,0.00069847,0.00133128,0.00024074,-0.00410687,0.00031630,0.01873351,
 0.00019532,0.00130671,-0.00276383,-0.00020799,-0.00006244,-0.00068797,
 -0.00028265,0.00075338,-0.00024970,-0.00004346,0.00136104,0.00047492,0
 .02552940,-0.13120733,-0.12707366,0.00440429,-0.04488042,0.03756773,-0
 .00066955,-0.00043259,-0.00089568,0.00006693,-0.00065837,0.00020957,0.
 00012190,0.00023890,0.00030885,-0.02088626,0.18068530,0.,0.,0.,0.,0.,0
 .,0.,0.,0.,0.,0.,0.,0.,0.,0.,0.,0.,0.,0.,0.,0.,0.,0.,0.,0.,0.,0.,0.,0.
 ,0.,0.,0.,0.,0.,0.,0.,0.,0.,0.,0.,0.,0.,0.,0.,0.,0.,0.,0.,0.,0.,0.,0.,
 0.,0.,0.,0.,0.,0.,0.,0.,0.,0.,0.,0.,0.,0.,0.,0.,0.,0.,0.,0.,0.,0.,0.,0
 .,0.,0.,0.,0.,0.,0.,0.,0.,0.,0.,0.,0.,0.,0.,0.,0.,0.,0.,0.,0.,0.,0.,0.
 ,0.,0.,0.,0.,0.,0.,0.,0.,0.,0.,0.,0.,0.,0.,0.,0.,0.,0.,0.,0.,0.,0.,0.,
 0.,0.,0.,0.,0.,0.,0.,0.,0.,0.,0.,0.,0.,0.,0.,0.,0.,0.,0.,0.,0.,0.,0.,0
 .,0.,0.,0.,0.,0.,0.,0.,0.,0.,0.,0.,0.,0.,0.,0.,0.,0.,0.,0.,0.,0.,0.,0.
 ,0.,0.,0.,0.,0.,0.,0.,0.,0.,0.,0.,0.,0.,0.,0.,0.,0.,0.,0.,0.,0.,0.,0.,
 0.,0.,0.,0.,0.,0.,0.,0.,0.,0.,0.,0.,0.,0.,0.,0.,0.,0.,0.,0.,0.,0.,0.,0
 .,0.,0.,0.,0.,0.,0.,0.,0.,0.,0.,0.,0.,0.,0.,0.,0.,0.,0.,0.,0.,0.,0.,0.
 ,0.,0.,0.,0.,0.,0.,0.,0.,0.,0.,0.,0.,0.,0.,0.,0.,0.,0.,0.,0.,0.,0.,0.,
 0.,0.,0.,0.,0.,0.,0.,0.,0.,0.,0.,0.,0.,0.,0.,0.,0.,0.,0.,0.,0.,0.,0.,0
 .,0.,0.,0.,0.,0.,0.,0.,0.,0.,0.,0.,0.,0.,0.,0.,0.,0.,0.,0.,0.,0.,0.,0.
 ,0.,0.,0.,0.,0.,0.,-0.00128727,-0.00160295,0.00046878,0.00002761,-0.00
 072513,0.00073185,0.01932386,-0.01876897,-0.00954629,-0.00493822,-0.00
 758387,-0.03971506,-0.02196916,0.00860968,-0.02119863,0.00701747,-0.01
 675893,-0.03416754,0.00004084,0.00093660,0.00004835,0.00146044,0.00189
 819,-0.00066085,0.00025216,0.00103687,-0.00004736,-0.00064287,0.000799
 53,0.00055389,0.00061111,-0.00032965,0.00090155,-0.00019856,-0.0007003
 7,0.00045350,-0.00801120,0.00810952,0.00609492,0.00635398,0.00080779,0
 .01397390,0.00475055,0.00443619,-0.00012761,0.00101514,0.00272694,-0.0
 0029475,-0.00014043,0.00093152,0.00004551,-0.00071380,0.00445752,0.000
 83026,-0.00568096,0.00744188,0.01236455,-0.00432764,-0.00226273,0.0028
 3263,0.00866521,-0.00407479,0.01015400,0.00085121,-0.00379070,0.003447
 73,0.00007501,-0.00074589,0.00063762,-0.00136337,-0.00292842,0.0009442
 9,-0.00033429,-0.00065333,-0.00022605,-0.00013986,-0.00045128,-0.00063
 955,0.00022388,-0.00069325,-0.00116112,-0.00020057,-0.00005414,-0.0013
 3679,0.00027156,0.00035097,-0.00046590,0.00009187,0.00016441,-0.000765
 17,0.00000742,0.00016927,0.00071999,0.00031287,0.00009926,0.00031573,-
 0.00025436,0.00005949,0.00030494,-0.00001602,0.00038614,0.00130671,0.0
 0151826,-0.00503759,-0.00119101,-0.00004669,-0.00068035,-0.00013841,-0
 .00560464,-0.00313254,-0.00101606,0.00480407,0.00154784,-0.00195359,0.
 00017883,0.00053868,-0.00048846,-0.00187304,0.00385239,-0.00406815,0.0
 0132792,0.00225189,-0.00192889,-0.00120892,-0.00281367,-0.00055131,0.0
 0396445,0.00042362,-0.00066751,0.00138688,0.00547011,0.00298525,0.0008
 5495,0.00141436,-0.00024099,0.00020505,0.00174826,0.00062818,0.0004167
 4,0.00147267,0.00070244,0.00022604,0.00056679,0.00054110,0.00020782,0.
 00053124,0.00026270,-0.00013994,-0.00022187,0.00049032,-0.00031519,0.0
 0004241,0.00077969,-0.00014653,-0.00060909,0.00127698,-0.00006923,0.00
 037313,0.00215748,-0.00063521,-0.00092516,0.00084553,-0.00013406,-0.00
 093603,0.00107240,-0.00073530,-0.00376231,0.00595053,-0.02360297,-0.02
 744829,0.00912095,-0.00275519,-0.00171592,0.00236246,0.00000742,0.0016
 0423,0.00923200,0.01756769,0.00619060,-0.01213844,0.00032157,0.0001220
 1,-0.00210328,-0.00177128,-0.00267584,-0.00181233,-0.00034733,-0.00113
 698,-0.00125042,-0.01765730,-0.00666650,-0.00470370,0.00083848,0.00074
 407,-0.00267166,0.02123592,0.03163853,-0.01353249,-0.00065784,-0.00307
 471,-0.00966946,0.00021058,-0.00186023,-0.00089447,-0.00011432,0.00085
 856,-0.00182768,0.00117536,0.00245678,-0.00124860,0.03398956,-0.117515
 65,-0.20663334,-0.03113443,0.03219205,-0.25534845,-0.00126594,-0.00315
 918,0.00085343,-0.00012310,-0.00134828,0.00115045,0.00009372,0.0019019
 5,0.00032259,-0.00098866,0.10722902,0.54262908\\0.,0.,0.,0.,0.,0.,0.,0
 .,0.,0.,0.,0.,0.,0.,0.,0.,0.,0.,0.,0.,0.,0.,0.,0.,0.,0.,0.,0.,0.,0.,0.
 ,0.,0.,0.,0.,0.,0.,0.,0.,0.,0.,0.,0.,0.,0.,0.,0.,0.,0.,0.,0.,0.,0.,0.,
 0.,0.,0.,0.,0.,0.,0.,0.,0.,0.,0.,0.,0.,0.,0.,0.,0.,0.,0.,0.,0.,0.,0.,0
 .,0.,0.,0.,0.,0.,0.,0.,0.,0.,0.,0.,0.,0.,0.,0.,0.,0.,0.,0.,0.,0.,0.,0.
 ,0.,0.,0.,0.,0.,0.,0.,0.,0.,0.,0.,0.,0.,0.,0.,0.,0.,0.,0.,0.,0.,0.,0.,
 0.,0.,0.,0.,0.,0.,0.,0.,0.,0.,0.,0.,0.,0.,0.,0.,0.,0.,0.,0.,0.,0.,0.,0
 .,0.,0.,0.,0.,0.,0.,0.,0.,0.,0.,0.,0.,0.,0.,0.,0.,0.,0.,0.,0.,0.,0.,0.
 ,0.,0.,0.,0.,0.,0.,0.,0.,0.,0.,0.,0.,0.,0.,0.,0.,0.,0.,0.,0.,0.,0.,0.,
 0.,0.,0.,0.,0.,0.,0.,0.,0.,0.,0.,0.,0.,0.,0.,0.,0.,0.,0.,0.,0.,0.,0.,0
 .,0.,0.,0.,0.,0.,0.,0.,0.,0.,0.,0.,0.,0.,0.,0.,0.,0.,0.,0.,0.,0.,0.,0.
 ,0.,0.,0.,0.,0.,0.,0.,0.,0.,0.,0.,0.,0.,0.,0.,0.,0.,0.,0.,0.,0.,0.,0.,
 0.,0.,0.,0.,0.,0.,0.,0.,0.,0.,0.,0.,0.,0.,0.,0.,0.,0.,0.,0.,0.,0.,0.,0
 .,0.,0.,0.,0.,0.,0.,0.,0.,0.,0.,0.,0.,0.,0.,0.,0.,0.,0.,0.,0.,0.,0.,0.
 ,0.,0.,0.,0.,-0.00000303,0.00000914,0.00002224,-0.00001447,-0.00002354
 ,-0.00006732,0.00001370,-0.00000455,-0.00002324,-0.00002436,0.00007982
 ,-0.00004068,0.00002933,0.00000362,0.00001730,0.00005195,-0.00001869,-
 0.00002255,0.00010507,0.00001154,-0.00001511,-0.00003686,0.00001704,-0
 .00005507,-0.00008951,-0.00002140,0.00000297,0.00001635,-0.00000142,-0
 .00001967,-0.00001741,0.00005043,0.00001723,-0.00000784,0.00004258,0.0
 0006938,-0.00000626,-0.00001291,0.00000494,-0.00000244,0.00001638,-0.0
 0000358,-0.00001313,-0.00009426,-0.00001704,-0.00001391,-0.00008552,-0
 .00001989,-0.00001533,-0.00002085,-0.00000443,0.00000557,0.00001253,-0
 .00000764,-0.00002349,-0.00001804,0.00002066,-0.00002622,-0.00012588,0
 .00009645,0.00001061,0.00000172,0.00000911,0.00000693,-0.00003662,0.00
 003408,-0.00006874,0.00003297,-0.00001282,0.00002966,0.00001883,-0.000
 00727,0.00005479,-0.00000110,0.00002855,-0.00002287,-0.00003363,-0.000
 00039,-0.00001742,0.00002004,0.00002322,0.00001286,-0.00002838,0.00001
 618,0.00002553,0.00001233,-0.00002231,0.00000170,-0.00001469,0.0000148
 1,-0.00000513,0.00002895,-0.00002568,-0.00004427,-0.00003268,-0.000003
 53,-0.00000070,-0.00000083,0.00000277,0.00001920,-0.00001048,-0.000013
 20,0.00000289,-0.00000506,-0.00000481,0.00000451,-0.00001769,0.0000069
 6,-0.00000534,0.00002128,-0.00001830,0.00002786,0.00001792,-0.00000605
 ,0.00001958,-0.00007881,-0.00001658,-0.00001006,-0.00000951,0.00000032
 ,0.00000945,0.00002375,-0.00000861,-0.00001720,0.00004539,-0.00002461,
 0.00004688,0.00017777,-0.00007324,0.00004561,0.00026427,0.00002122,-0.
 00001211,0.00007764,0.00007880,-0.00003168,0.00003749,-0.00004963,0.00
 005200,0.00009254,0.00005656,-0.00005065,0.00000123,-0.00002814,0.0001
 1653,0.00015690,0.00011441,-0.00002566,0.00000002,0.00001386,-0.000079
 31,-0.00013054,-0.00006838,-0.00004849,0.00018829,-0.00011041,0.000021
 52,0.00048010,-0.00013381,-0.00000821,-0.00000656,0.00000395,0.0000161
 0,0.00025601,-0.00009191,0.00016084,0.00002752,-0.00004714,0.00019610,
 -0.00002084,0.00007701,-0.00003982,0.00013413,0.00001937,0.00002498,-0
 .00004968,-0.00007577,-0.00015939,-0.00005141,-0.00006276,0.00024322,-
 0.00017727,0.00009591,0.00001932,-0.00023679,0.00004822,-0.00011333,-0
 .00025592,-0.00004660,-0.00014703,0.00001175,0.00002673,-0.00000707,-0
 .00022078,0.00025502,0.00015547,0.00012817,-0.00007491,-0.00014502,-0.
 00048668,-0.00001041,0.00008217,0.00003495,0.00007310,-0.00007695,0.00
 006906,-0.00008694,0.00002722,0.00003993,-0.00007907,0.00000344,-0.000
 21294,-0.00010859,-0.00010833,-0.00024392,0.00003206,-0.00005584,-0.00
 002645,-0.00000074,0.00004235,-0.00004796,0.00016446,0.00000866,-0.000
 00255,-0.00001055,-0.00012819,0.00022616,0.00018312\\\@


 ... IT CAN BE VERY DIFFICULT, IN THESE COMPLEX TIMES,
 TO UNDERSTAND JUST HOW SCIENTISTS DO WHAT THEY DO.

                     DON MOSER IN THE FEBRUARY 1979 SMITHSONIAN
 Job cpu time:       0 days 12 hours 41 minutes 35.3 seconds.
 File lengths (MBytes):  RWF=  22234 Int=      0 D2E=      0 Chk=     91 Scr=      1
 Normal termination of Gaussian 09 at Sun Nov 14 20:19:58 2021.
