 Entering Gaussian System, Link 0=g09
 Initial command:
 /ihome/crc/build/g09/g09-D.01/TAR/g09/l1.exe "/scratch/slurm-3049836/Gau-8088.inp" -scrdir="/scratch/slurm-3049836/"
 Entering Link 1 = /ihome/crc/build/g09/g09-D.01/TAR/g09/l1.exe PID=      8089.
  
 Copyright (c) 1988,1990,1992,1993,1995,1998,2003,2009,2013,
            Gaussian, Inc.  All Rights Reserved.
  
 This is part of the Gaussian(R) 09 program.  It is based on
 the Gaussian(R) 03 system (copyright 2003, Gaussian, Inc.),
 the Gaussian(R) 98 system (copyright 1998, Gaussian, Inc.),
 the Gaussian(R) 94 system (copyright 1995, Gaussian, Inc.),
 the Gaussian 92(TM) system (copyright 1992, Gaussian, Inc.),
 the Gaussian 90(TM) system (copyright 1990, Gaussian, Inc.),
 the Gaussian 88(TM) system (copyright 1988, Gaussian, Inc.),
 the Gaussian 86(TM) system (copyright 1986, Carnegie Mellon
 University), and the Gaussian 82(TM) system (copyright 1983,
 Carnegie Mellon University). Gaussian is a federally registered
 trademark of Gaussian, Inc.
  
 This software contains proprietary and confidential information,
 including trade secrets, belonging to Gaussian, Inc.
  
 This software is provided under written license and may be
 used, copied, transmitted, or stored only in accord with that
 written license.
  
 The following legend is applicable only to US Government
 contracts under FAR:
  
                    RESTRICTED RIGHTS LEGEND
  
 Use, reproduction and disclosure by the US Government is
 subject to restrictions as set forth in subparagraphs (a)
 and (c) of the Commercial Computer Software - Restricted
 Rights clause in FAR 52.227-19.
  
 Gaussian, Inc.
 340 Quinnipiac St., Bldg. 40, Wallingford CT 06492
  
  
 ---------------------------------------------------------------
 Warning -- This program may not be used in any manner that
 competes with the business of Gaussian, Inc. or will provide
 assistance to any competitor of Gaussian, Inc.  The licensee
 of this program is prohibited from giving any competitor of
 Gaussian, Inc. access to this program.  By using this program,
 the user acknowledges that Gaussian, Inc. is engaged in the
 business of creating and licensing software in the field of
 computational chemistry and represents and warrants to the
 licensee that it is not a competitor of Gaussian, Inc. and that
 it will not use this program in any manner prohibited above.
 ---------------------------------------------------------------
  

 Cite this work as:
 Gaussian 09, Revision D.01,
 M. J. Frisch, G. W. Trucks, H. B. Schlegel, G. E. Scuseria, 
 M. A. Robb, J. R. Cheeseman, G. Scalmani, V. Barone, B. Mennucci, 
 G. A. Petersson, H. Nakatsuji, M. Caricato, X. Li, H. P. Hratchian, 
 A. F. Izmaylov, J. Bloino, G. Zheng, J. L. Sonnenberg, M. Hada, 
 M. Ehara, K. Toyota, R. Fukuda, J. Hasegawa, M. Ishida, T. Nakajima, 
 Y. Honda, O. Kitao, H. Nakai, T. Vreven, J. A. Montgomery, Jr., 
 J. E. Peralta, F. Ogliaro, M. Bearpark, J. J. Heyd, E. Brothers, 
 K. N. Kudin, V. N. Staroverov, T. Keith, R. Kobayashi, J. Normand, 
 K. Raghavachari, A. Rendell, J. C. Burant, S. S. Iyengar, J. Tomasi, 
 M. Cossi, N. Rega, J. M. Millam, M. Klene, J. E. Knox, J. B. Cross, 
 V. Bakken, C. Adamo, J. Jaramillo, R. Gomperts, R. E. Stratmann, 
 O. Yazyev, A. J. Austin, R. Cammi, C. Pomelli, J. W. Ochterski, 
 R. L. Martin, K. Morokuma, V. G. Zakrzewski, G. A. Voth, 
 P. Salvador, J. J. Dannenberg, S. Dapprich, A. D. Daniels, 
 O. Farkas, J. B. Foresman, J. V. Ortiz, J. Cioslowski, 
 and D. J. Fox, Gaussian, Inc., Wallingford CT, 2013.
 
 ******************************************
 Gaussian 09:  EM64L-G09RevD.01 24-Apr-2013
                 3-May-2021 
 ******************************************
 %nprocshared=16
 Will use up to   16 processors via shared memory.
 %mem=32GB
 ----------------------------------------------------------------------
 # opt freq=noraman m062x 6-311+g(d,p) scrf=(smd,solvent=water) geom=co
 nnectivity temperature=298.15
 ----------------------------------------------------------------------
 1/14=-1,18=20,19=15,26=3,38=1,57=2,112=298150/1,3;
 2/9=110,12=2,17=6,18=5,40=1/2;
 3/5=4,6=6,7=111,11=2,16=1,25=1,30=1,70=32201,71=1,72=1,74=-55/1,2,3;
 4//1;
 5/5=2,38=5,53=1/2;
 6/7=2,8=2,9=2,10=2,28=1/1;
 7//1,2,3,16;
 1/14=-1,18=20,19=15,26=3/3(2);
 2/9=110/2;
 99//99;
 2/9=110/2;
 3/5=4,6=6,7=111,11=2,16=1,25=1,30=1,70=32205,71=1,72=1,74=-55/1,2,3;
 4/5=5,16=3,69=1/1;
 5/5=2,38=5,53=1/2;
 7//1,2,3,16;
 1/14=-1,18=20,19=15,26=3/3(-5);
 2/9=110/2;
 6/7=2,8=2,9=2,10=2,19=2,28=1/1;
 99/9=1/99;
 -------------------
 Title Card Required
 -------------------
 Symbolic Z-matrix:
 Charge = -1 Multiplicity = 1
 C                     0.37532   0.60654   0.00001 
 C                     0.32101  -0.78269   0.00003 
 C                    -2.08271  -0.74068  -0.00013 
 N                    -1.95863   0.63108  -0.00003 
 N                    -0.89392  -1.43077   0.00002 
 N                     1.74298   0.88565   0.00002 
 N                     1.52292  -1.36665   0.00028 
 C                     2.42936  -0.32     -0.00059 
 O                     3.67326  -0.4211    0.00013 
 O                    -3.17862  -1.30685  -0.0001 
 C                    -0.7709    1.41258   0.00012 
 O                    -0.86067   2.65409   0.00007 
 H                    -2.83078   1.14615  -0.00005 
 H                    -0.94209  -2.44172   0.00011 
 H                     2.17516   1.79667   0.00034 
 

 GradGradGradGradGradGradGradGradGradGradGradGradGradGradGradGradGradGrad
 Berny optimization.
 Initialization pass.
                           ----------------------------
                           !    Initial Parameters    !
                           ! (Angstroms and Degrees)  !
 --------------------------                            --------------------------
 ! Name  Definition              Value          Derivative Info.                !
 --------------------------------------------------------------------------------
 ! R1    R(1,2)                  1.3903         estimate D2E/DX2                !
 ! R2    R(1,6)                  1.3959         estimate D2E/DX2                !
 ! R3    R(1,11)                 1.4013         estimate D2E/DX2                !
 ! R4    R(2,5)                  1.377          estimate D2E/DX2                !
 ! R5    R(2,7)                  1.3363         estimate D2E/DX2                !
 ! R6    R(3,4)                  1.3774         estimate D2E/DX2                !
 ! R7    R(3,5)                  1.3746         estimate D2E/DX2                !
 ! R8    R(3,10)                 1.2335         estimate D2E/DX2                !
 ! R9    R(4,11)                 1.4218         estimate D2E/DX2                !
 ! R10   R(4,13)                 1.0129         estimate D2E/DX2                !
 ! R11   R(5,14)                 1.0121         estimate D2E/DX2                !
 ! R12   R(6,8)                  1.3873         estimate D2E/DX2                !
 ! R13   R(6,15)                 1.0083         estimate D2E/DX2                !
 ! R14   R(7,8)                  1.3846         estimate D2E/DX2                !
 ! R15   R(8,9)                  1.248          estimate D2E/DX2                !
 ! R16   R(11,12)                1.2448         estimate D2E/DX2                !
 ! A1    A(2,1,6)              103.7733         estimate D2E/DX2                !
 ! A2    A(2,1,11)             122.8769         estimate D2E/DX2                !
 ! A3    A(6,1,11)             133.3497         estimate D2E/DX2                !
 ! A4    A(1,2,5)              120.3155         estimate D2E/DX2                !
 ! A5    A(1,2,7)              113.6746         estimate D2E/DX2                !
 ! A6    A(5,2,7)              126.0099         estimate D2E/DX2                !
 ! A7    A(4,3,5)              114.9666         estimate D2E/DX2                !
 ! A8    A(4,3,10)             122.4901         estimate D2E/DX2                !
 ! A9    A(5,3,10)             122.5433         estimate D2E/DX2                !
 ! A10   A(3,4,11)             128.5119         estimate D2E/DX2                !
 ! A11   A(3,4,13)             115.3964         estimate D2E/DX2                !
 ! A12   A(11,4,13)            116.0917         estimate D2E/DX2                !
 ! A13   A(2,5,3)              121.7883         estimate D2E/DX2                !
 ! A14   A(2,5,14)             120.8051         estimate D2E/DX2                !
 ! A15   A(3,5,14)             117.4066         estimate D2E/DX2                !
 ! A16   A(1,6,8)              108.1181         estimate D2E/DX2                !
 ! A17   A(1,6,15)             126.9138         estimate D2E/DX2                !
 ! A18   A(8,6,15)             124.9681         estimate D2E/DX2                !
 ! A19   A(2,7,8)              104.9807         estimate D2E/DX2                !
 ! A20   A(6,8,7)              109.4532         estimate D2E/DX2                !
 ! A21   A(6,8,9)              124.2993         estimate D2E/DX2                !
 ! A22   A(7,8,9)              126.2474         estimate D2E/DX2                !
 ! A23   A(1,11,4)             111.5407         estimate D2E/DX2                !
 ! A24   A(1,11,12)            129.2517         estimate D2E/DX2                !
 ! A25   A(4,11,12)            119.2076         estimate D2E/DX2                !
 ! D1    D(6,1,2,5)           -179.9999         estimate D2E/DX2                !
 ! D2    D(6,1,2,7)              0.0111         estimate D2E/DX2                !
 ! D3    D(11,1,2,5)             0.0063         estimate D2E/DX2                !
 ! D4    D(11,1,2,7)          -179.9827         estimate D2E/DX2                !
 ! D5    D(2,1,6,8)              0.0275         estimate D2E/DX2                !
 ! D6    D(2,1,6,15)          -179.9768         estimate D2E/DX2                !
 ! D7    D(11,1,6,8)          -179.9797         estimate D2E/DX2                !
 ! D8    D(11,1,6,15)            0.016          estimate D2E/DX2                !
 ! D9    D(2,1,11,4)            -0.012          estimate D2E/DX2                !
 ! D10   D(2,1,11,12)         -179.9972         estimate D2E/DX2                !
 ! D11   D(6,1,11,4)           179.9962         estimate D2E/DX2                !
 ! D12   D(6,1,11,12)            0.0111         estimate D2E/DX2                !
 ! D13   D(1,2,5,3)              0.0063         estimate D2E/DX2                !
 ! D14   D(1,2,5,14)          -179.9951         estimate D2E/DX2                !
 ! D15   D(7,2,5,3)            179.9939         estimate D2E/DX2                !
 ! D16   D(7,2,5,14)            -0.0075         estimate D2E/DX2                !
 ! D17   D(1,2,7,8)             -0.0444         estimate D2E/DX2                !
 ! D18   D(5,2,7,8)            179.9673         estimate D2E/DX2                !
 ! D19   D(5,3,4,11)             0.0039         estimate D2E/DX2                !
 ! D20   D(5,3,4,13)          -179.9945         estimate D2E/DX2                !
 ! D21   D(10,3,4,11)          179.9911         estimate D2E/DX2                !
 ! D22   D(10,3,4,13)           -0.0073         estimate D2E/DX2                !
 ! D23   D(4,3,5,2)             -0.0108         estimate D2E/DX2                !
 ! D24   D(4,3,5,14)           179.9906         estimate D2E/DX2                !
 ! D25   D(10,3,5,2)          -179.998          estimate D2E/DX2                !
 ! D26   D(10,3,5,14)            0.0034         estimate D2E/DX2                !
 ! D27   D(3,4,11,1)             0.0071         estimate D2E/DX2                !
 ! D28   D(3,4,11,12)          179.994          estimate D2E/DX2                !
 ! D29   D(13,4,11,1)         -179.9945         estimate D2E/DX2                !
 ! D30   D(13,4,11,12)          -0.0077         estimate D2E/DX2                !
 ! D31   D(1,6,8,7)             -0.0559         estimate D2E/DX2                !
 ! D32   D(1,6,8,9)           -179.9514         estimate D2E/DX2                !
 ! D33   D(15,6,8,7)           179.9483         estimate D2E/DX2                !
 ! D34   D(15,6,8,9)             0.0528         estimate D2E/DX2                !
 ! D35   D(2,7,8,6)              0.0605         estimate D2E/DX2                !
 ! D36   D(2,7,8,9)            179.9535         estimate D2E/DX2                !
 --------------------------------------------------------------------------------
 Trust Radius=3.00D-01 FncErr=1.00D-07 GrdErr=1.00D-06
 Number of steps in this run=     87 maximum allowed number of steps=    100.
 GradGradGradGradGradGradGradGradGradGradGradGradGradGradGradGradGradGrad

                          Input orientation:                          
 ---------------------------------------------------------------------
 Center     Atomic      Atomic             Coordinates (Angstroms)
 Number     Number       Type             X           Y           Z
 ---------------------------------------------------------------------
      1          6           0        0.375318    0.606538    0.000013
      2          6           0        0.321009   -0.782686    0.000029
      3          6           0       -2.082707   -0.740682   -0.000125
      4          7           0       -1.958633    0.631084   -0.000032
      5          7           0       -0.893918   -1.430765    0.000024
      6          7           0        1.742984    0.885653    0.000021
      7          7           0        1.522917   -1.366646    0.000283
      8          6           0        2.429359   -0.320001   -0.000591
      9          8           0        3.673261   -0.421101    0.000128
     10          8           0       -3.178617   -1.306852   -0.000095
     11          6           0       -0.770895    1.412578    0.000121
     12          8           0       -0.860674    2.654094    0.000073
     13          1           0       -2.830780    1.146145   -0.000053
     14          1           0       -0.942093   -2.441715    0.000110
     15          1           0        2.175162    1.796672    0.000340
 ---------------------------------------------------------------------
                    Distance matrix (angstroms):
                    1          2          3          4          5
     1  C    0.000000
     2  C    1.390285   0.000000
     3  C    2.803014   2.404083   0.000000
     4  N    2.334080   2.682445   1.377366   0.000000
     5  N    2.400326   1.376973   1.374567   2.320526   0.000000
     6  N    1.395857   2.192115   4.157027   3.710360   3.509850
     7  N    2.282639   1.336261   3.659557   4.013990   2.417685
     8  C    2.253344   2.158522   4.531635   4.489882   3.503993
     9  O    3.454341   3.371696   5.764833   5.729339   4.677451
    10  O    4.036275   3.538662   1.233518   2.289969   2.288057
    11  C    1.401251   2.451823   2.521384   1.421779   2.846003
    12  O    2.391686   3.634258   3.608028   2.301757   4.084994
    13  H    3.251191   3.695154   2.029712   1.012881   3.223647
    14  H    3.320756   2.085139   2.048051   3.236580   1.012097
    15  H    2.157744   3.176629   4.956573   4.294980   4.453718
                    6          7          8          9         10
     6  N    0.000000
     7  N    2.263025   0.000000
     8  C    1.387340   1.384595   0.000000
     9  O    2.331003   2.349050   1.248004   0.000000
    10  O    5.387878   4.701914   5.694143   6.908892   0.000000
    11  C    2.568509   3.603562   3.639156   4.807588   3.632138
    12  O    3.147446   4.674169   4.435038   5.478448   4.589330
    13  H    4.581176   5.026808   5.460645   6.690202   2.477536
    14  H    4.275631   2.689247   3.983511   5.038291   2.507978
    15  H    1.008332   3.229861   2.131882   2.676344   6.188280
                   11         12         13         14         15
    11  C    0.000000
    12  O    1.244758   0.000000
    13  H    2.077044   2.480973   0.000000
    14  H    3.858093   5.096459   4.054612   0.000000
    15  H    2.970990   3.154596   5.048033   5.261293   0.000000
 Stoichiometry    C5H3N4O3(1-)
 Framework group  C1[X(C5H3N4O3)]
 Deg. of freedom    39
 Full point group                 C1      NOp   1
 Largest Abelian subgroup         C1      NOp   1
 Largest concise Abelian subgroup C1      NOp   1
                         Standard orientation:                         
 ---------------------------------------------------------------------
 Center     Atomic      Atomic             Coordinates (Angstroms)
 Number     Number       Type             X           Y           Z
 ---------------------------------------------------------------------
      1          6           0        0.375318    0.606538    0.000013
      2          6           0        0.321009   -0.782686    0.000029
      3          6           0       -2.082707   -0.740682   -0.000125
      4          7           0       -1.958633    0.631084   -0.000032
      5          7           0       -0.893918   -1.430765    0.000024
      6          7           0        1.742984    0.885653    0.000021
      7          7           0        1.522917   -1.366646    0.000283
      8          6           0        2.429359   -0.320001   -0.000591
      9          8           0        3.673261   -0.421101    0.000128
     10          8           0       -3.178617   -1.306852   -0.000095
     11          6           0       -0.770895    1.412578    0.000121
     12          8           0       -0.860674    2.654094    0.000073
     13          1           0       -2.830780    1.146145   -0.000053
     14          1           0       -0.942093   -2.441715    0.000110
     15          1           0        2.175162    1.796672    0.000340
 ---------------------------------------------------------------------
 Rotational constants (GHZ):      1.8836992      0.7477399      0.5352649
 Standard basis: 6-311+G(d,p) (5D, 7F)
 There are   294 symmetry adapted cartesian basis functions of A   symmetry.
 There are   282 symmetry adapted basis functions of A   symmetry.
   282 basis functions,   456 primitive gaussians,   294 cartesian basis functions
    43 alpha electrons       43 beta electrons
       nuclear repulsion energy       677.4474535836 Hartrees.
 NAtoms=   15 NActive=   15 NUniq=   15 SFac= 1.00D+00 NAtFMM=   60 NAOKFM=F Big=F
 Integral buffers will be    131072 words long.
 Raffenetti 2 integral format.
 Two-electron integral symmetry is turned on.
 ------------------------------------------------------------------------------
 Polarizable Continuum Model (PCM)
 =================================
 Model                : PCM (using non-symmetric T matrix).
 Atomic radii         : SMD-Coulomb.
 Polarization charges : Total charges.
 Charge compensation  : None.
 Solution method      : On-the-fly selection.
 Cavity type          : VdW (van der Waals Surface) (Alpha=1.000).
 Cavity algorithm     : GePol (No added spheres)
                        Default sphere list used, NSphG=   15.
                        Lebedev-Laikov grids with approx.  5.0 points / Ang**2.
                        Smoothing algorithm: Karplus/York (Gamma=1.0000).
                        Polarization charges: spherical gaussians, with
                                              point-specific exponents (IZeta= 3).
                        Self-potential: point-specific (ISelfS= 7).
                        Self-field    : sphere-specific E.n sum rule (ISelfD= 2).
 1st derivatives      : Analytical E(r).r(x)/FMM algorithm (CHGder, D1EAlg=3).
                        Cavity 1st derivative terms included.
 Solvent              : Water, Eps=  78.355300 Eps(inf)=   1.777849
 ------------------------------------------------------------------------------
 Spheres list:
 ISph  on   Nord     Re0    Alpha      Xe            Ye            Ze
    1   C      1    1.8500  1.000      0.375318      0.606538      0.000013
    2   C      2    1.8500  1.000      0.321009     -0.782686      0.000029
    3   C      3    1.8500  1.000     -2.082707     -0.740682     -0.000125
    4   N      4    1.8900  1.000     -1.958633      0.631084     -0.000032
    5   N      5    1.8900  1.000     -0.893918     -1.430765      0.000024
    6   N      6    1.8900  1.000      1.742984      0.885653      0.000021
    7   N      7    1.8900  1.000      1.522917     -1.366646      0.000283
    8   C      8    1.8500  1.000      2.429359     -0.320001     -0.000591
    9   O      9    1.5200  1.000      3.673261     -0.421101      0.000128
   10   O     10    1.5200  1.000     -3.178617     -1.306852     -0.000095
   11   C     11    1.8500  1.000     -0.770895      1.412578      0.000121
   12   O     12    1.5200  1.000     -0.860674      2.654094      0.000073
   13   H     13    1.2000  1.000     -2.830780      1.146145     -0.000053
   14   H     14    1.2000  1.000     -0.942093     -2.441715      0.000110
   15   H     15    1.2000  1.000      2.175162      1.796672      0.000340
 ------------------------------------------------------------------------------
 ------------------------------------------------------------------------------
 Atomic radii for non-electrostatic terms: SMD-CDS.
 ------------------------------------------------------------------------------
 Nuclear repulsion after PCM non-electrostatic terms =      677.4536043658 Hartrees.
 One-electron integrals computed using PRISM.
 NBasis=   282 RedAO= T EigKep=  5.04D-06  NBF=   282
 NBsUse=   282 1.00D-06 EigRej= -1.00D+00 NBFU=   282
 ExpMin= 4.38D-02 ExpMax= 8.59D+03 ExpMxC= 1.30D+03 IAcc=2 IRadAn=         4 AccDes= 0.00D+00
 Harris functional with IExCor= 1009 and IRadAn=       4 diagonalized for initial guess.
 HarFok:  IExCor= 1009 AccDes= 0.00D+00 IRadAn=         4 IDoV= 1 UseB2=F ITyADJ=14
 ICtDFT=  3500011 ScaDFX=  1.000000  1.000000  1.000000  1.000000
 FoFCou: FMM=F IPFlag=           0 FMFlag=      100000 FMFlg1=           0
         NFxFlg=           0 DoJE=T BraDBF=F KetDBF=T FulRan=T
         wScrn=  0.000000 ICntrl=     500 IOpCl=  0 I1Cent=   200000004 NGrid=           0
         NMat0=    1 NMatS0=      1 NMatT0=    0 NMatD0=    1 NMtDS0=    0 NMtDT0=    0
 Petite list used in FoFCou.
 Keep R1 ints in memory in canonical form, NReq=809265418.
 Requested convergence on RMS density matrix=1.00D-08 within 128 cycles.
 Requested convergence on MAX density matrix=1.00D-06.
 Requested convergence on             energy=1.00D-06.
 No special actions if energy rises.
 Inv3:  Mode=1 IEnd=     5274828.
 Iteration    1 A*A^-1 deviation from unit magnitude is 5.55D-15 for     59.
 Iteration    1 A*A^-1 deviation from orthogonality  is 6.31D-15 for   1006     26.
 Iteration    1 A^-1*A deviation from unit magnitude is 5.88D-15 for     50.
 Iteration    1 A^-1*A deviation from orthogonality  is 1.87D-11 for   1123   1085.
 Error on total polarization charges =  0.05473
 SCF Done:  E(RM062X) =  -637.220045923     A.U. after   16 cycles
            NFock= 16  Conv=0.21D-08     -V/T= 2.0037
 SMD-CDS (non-electrostatic) energy       (kcal/mol) =       3.86
 (included in total energy above)

 **********************************************************************

            Population analysis using the SCF density.

 **********************************************************************

 Orbital symmetries:
       Occupied  (A) (A) (A) (A) (A) (A) (A) (A) (A) (A) (A) (A)
                 (A) (A) (A) (A) (A) (A) (A) (A) (A) (A) (A) (A)
                 (A) (A) (A) (A) (A) (A) (A) (A) (A) (A) (A) (A)
                 (A) (A) (A) (A) (A) (A) (A)
       Virtual   (A) (A) (A) (A) (A) (A) (A) (A) (A) (A) (A) (A)
                 (A) (A) (A) (A) (A) (A) (A) (A) (A) (A) (A) (A)
                 (A) (A) (A) (A) (A) (A) (A) (A) (A) (A) (A) (A)
                 (A) (A) (A) (A) (A) (A) (A) (A) (A) (A) (A) (A)
                 (A) (A) (A) (A) (A) (A) (A) (A) (A) (A) (A) (A)
                 (A) (A) (A) (A) (A) (A) (A) (A) (A) (A) (A) (A)
                 (A) (A) (A) (A) (A) (A) (A) (A) (A) (A) (A) (A)
                 (A) (A) (A) (A) (A) (A) (A) (A) (A) (A) (A) (A)
                 (A) (A) (A) (A) (A) (A) (A) (A) (A) (A) (A) (A)
                 (A) (A) (A) (A) (A) (A) (A) (A) (A) (A) (A) (A)
                 (A) (A) (A) (A) (A) (A) (A) (A) (A) (A) (A) (A)
                 (A) (A) (A) (A) (A) (A) (A) (A) (A) (A) (A) (A)
                 (A) (A) (A) (A) (A) (A) (A) (A) (A) (A) (A) (A)
                 (A) (A) (A) (A) (A) (A) (A) (A) (A) (A) (A) (A)
                 (A) (A) (A) (A) (A) (A) (A) (A) (A) (A) (A) (A)
                 (A) (A) (A) (A) (A) (A) (A) (A) (A) (A) (A) (A)
                 (A) (A) (A) (A) (A) (A) (A) (A) (A) (A) (A) (A)
                 (A) (A) (A) (A) (A) (A) (A) (A) (A) (A) (A) (A)
                 (A) (A) (A) (A) (A) (A) (A) (A) (A) (A) (A) (A)
                 (A) (A) (A) (A) (A) (A) (A) (A) (A) (A) (A)
 The electronic state is 1-A.
 Alpha  occ. eigenvalues --  -19.61007 -19.60308 -19.58338 -14.80661 -14.79861
 Alpha  occ. eigenvalues --  -14.78218 -14.73113 -10.70305 -10.66705 -10.65834
 Alpha  occ. eigenvalues --  -10.62653 -10.56912  -1.20160  -1.16784  -1.16076
 Alpha  occ. eigenvalues --   -1.10357  -1.06600  -1.03136  -0.97217  -0.85814
 Alpha  occ. eigenvalues --   -0.76021  -0.74540  -0.68697  -0.67797  -0.63022
 Alpha  occ. eigenvalues --   -0.59809  -0.57117  -0.56638  -0.54993  -0.53003
 Alpha  occ. eigenvalues --   -0.52429  -0.50275  -0.49957  -0.48623  -0.43558
 Alpha  occ. eigenvalues --   -0.39348  -0.38203  -0.37516  -0.35893  -0.35110
 Alpha  occ. eigenvalues --   -0.34655  -0.32584  -0.24635
 Alpha virt. eigenvalues --    0.01049   0.01110   0.02694   0.03002   0.03958
 Alpha virt. eigenvalues --    0.04868   0.05110   0.05425   0.06354   0.07009
 Alpha virt. eigenvalues --    0.08381   0.08684   0.09131   0.10278   0.11117
 Alpha virt. eigenvalues --    0.11716   0.12605   0.13335   0.13770   0.13851
 Alpha virt. eigenvalues --    0.15987   0.17344   0.18407   0.18438   0.18877
 Alpha virt. eigenvalues --    0.19805   0.19907   0.20524   0.22448   0.22603
 Alpha virt. eigenvalues --    0.22805   0.23005   0.23896   0.24436   0.25598
 Alpha virt. eigenvalues --    0.25903   0.26130   0.26996   0.27378   0.28406
 Alpha virt. eigenvalues --    0.28671   0.28830   0.29108   0.29967   0.30913
 Alpha virt. eigenvalues --    0.30930   0.32222   0.32811   0.33002   0.33009
 Alpha virt. eigenvalues --    0.34420   0.36285   0.36591   0.37116   0.38027
 Alpha virt. eigenvalues --    0.39426   0.40335   0.41535   0.42592   0.44701
 Alpha virt. eigenvalues --    0.45861   0.47979   0.49138   0.52118   0.54675
 Alpha virt. eigenvalues --    0.56902   0.58678   0.60453   0.62596   0.62617
 Alpha virt. eigenvalues --    0.64357   0.64719   0.68052   0.69606   0.70127
 Alpha virt. eigenvalues --    0.70690   0.72894   0.75303   0.77364   0.78891
 Alpha virt. eigenvalues --    0.80856   0.81444   0.82696   0.85456   0.86954
 Alpha virt. eigenvalues --    0.87042   0.89565   0.90481   0.90883   0.91385
 Alpha virt. eigenvalues --    0.93439   0.95894   0.97015   0.99071   1.00862
 Alpha virt. eigenvalues --    1.01290   1.05803   1.07063   1.07909   1.13805
 Alpha virt. eigenvalues --    1.13861   1.14098   1.17705   1.18349   1.19608
 Alpha virt. eigenvalues --    1.19958   1.20377   1.21650   1.22962   1.23308
 Alpha virt. eigenvalues --    1.23717   1.24397   1.24981   1.27028   1.28879
 Alpha virt. eigenvalues --    1.30033   1.31991   1.32974   1.33107   1.37609
 Alpha virt. eigenvalues --    1.38135   1.38562   1.43843   1.56996   1.58617
 Alpha virt. eigenvalues --    1.59730   1.65366   1.65959   1.68226   1.70139
 Alpha virt. eigenvalues --    1.71899   1.74959   1.75795   1.77365   1.81603
 Alpha virt. eigenvalues --    1.83132   1.84074   1.86655   1.87655   1.90259
 Alpha virt. eigenvalues --    1.91314   1.93152   1.95601   1.99196   2.06807
 Alpha virt. eigenvalues --    2.10352   2.11066   2.15933   2.23287   2.24174
 Alpha virt. eigenvalues --    2.26289   2.26583   2.31381   2.32111   2.38843
 Alpha virt. eigenvalues --    2.41888   2.42378   2.48070   2.50917   2.57060
 Alpha virt. eigenvalues --    2.61815   2.64729   2.65957   2.70740   2.72123
 Alpha virt. eigenvalues --    2.75449   2.79808   2.81642   2.82475   2.86945
 Alpha virt. eigenvalues --    2.90327   2.90730   2.91997   2.93928   2.96301
 Alpha virt. eigenvalues --    2.96902   2.98361   2.99209   2.99800   3.00225
 Alpha virt. eigenvalues --    3.01122   3.05292   3.06594   3.09367   3.18273
 Alpha virt. eigenvalues --    3.24050   3.39170   3.39782   3.40225   3.41389
 Alpha virt. eigenvalues --    3.42252   3.44500   3.47690   3.49299   3.52813
 Alpha virt. eigenvalues --    3.57603   3.61766   3.64517   3.68799   3.71418
 Alpha virt. eigenvalues --    3.75315   3.82381   3.93194   3.97035   3.98864
 Alpha virt. eigenvalues --    3.99886   4.02990   4.03548   4.09881   4.27057
 Alpha virt. eigenvalues --    4.59366   4.72917   4.79073   4.87868   4.95277
 Alpha virt. eigenvalues --    5.07752   5.15988   5.18506   5.18744   5.22308
 Alpha virt. eigenvalues --    5.28920   5.31739   5.40737   5.45513   5.84339
 Alpha virt. eigenvalues --    5.88232   5.89238  23.78198  23.90670  23.92705
 Alpha virt. eigenvalues --   24.03812  24.16428  35.64753  35.70585  35.75996
 Alpha virt. eigenvalues --   35.82953  50.11208  50.15321  50.16563
          Condensed to atoms (all electrons):
               1          2          3          4          5          6
     1  C   11.071214  -2.646264   0.433249  -0.065563   0.132674   0.117528
     2  C   -2.646264   9.530275  -0.413224   0.231594   0.009525   0.156578
     3  C    0.433249  -0.413224   5.014412   0.276941   0.322656  -0.008382
     4  N   -0.065563   0.231594   0.276941   7.296134  -0.175211   0.028740
     5  N    0.132674   0.009525   0.322656  -0.175211   6.957183   0.006989
     6  N    0.117528   0.156578  -0.008382   0.028740   0.006989   7.011781
     7  N    0.114200   0.376507   0.012746  -0.005537  -0.084415  -0.125400
     8  C    0.055308  -0.569979  -0.038936  -0.014690   0.067190   0.168527
     9  O   -0.014168   0.039526  -0.000892   0.000206   0.000537  -0.108955
    10  O   -0.049698   0.036709   0.422707  -0.105858  -0.081795   0.000648
    11  C   -3.658321  -0.624149  -0.442493  -0.185229  -0.005019  -0.145075
    12  O   -0.169848  -0.043111   0.021975  -0.099421  -0.005475   0.025855
    13  H    0.018334   0.012491  -0.034621   0.328874   0.005926   0.000059
    14  H    0.022919  -0.010463  -0.037683   0.005761   0.327722  -0.000740
    15  H    0.019520   0.000647   0.000006   0.000438  -0.000304   0.340511
               7          8          9         10         11         12
     1  C    0.114200   0.055308  -0.014168  -0.049698  -3.658321  -0.169848
     2  C    0.376507  -0.569979   0.039526   0.036709  -0.624149  -0.043111
     3  C    0.012746  -0.038936  -0.000892   0.422707  -0.442493   0.021975
     4  N   -0.005537  -0.014690   0.000206  -0.105858  -0.185229  -0.099421
     5  N   -0.084415   0.067190   0.000537  -0.081795  -0.005019  -0.005475
     6  N   -0.125400   0.168527  -0.108955   0.000648  -0.145075   0.025855
     7  N    6.994941   0.270580  -0.106784   0.000980  -0.090075   0.002409
     8  C    0.270580   5.383104   0.384606  -0.001195  -0.122894   0.017203
     9  O   -0.106784   0.384606   8.488359   0.000007  -0.013527  -0.000054
    10  O    0.000980  -0.001195   0.000007   8.270667   0.031796   0.001079
    11  C   -0.090075  -0.122894  -0.013527   0.031796  10.873914   0.425187
    12  O    0.002409   0.017203  -0.000054   0.001079   0.425187   8.388283
    13  H   -0.000149  -0.000159   0.000000   0.005965  -0.022886   0.004658
    14  H    0.015048  -0.000651  -0.000011   0.004062  -0.001853  -0.000053
    15  H    0.005645  -0.037566   0.006264   0.000002  -0.004991   0.000249
              13         14         15
     1  C    0.018334   0.022919   0.019520
     2  C    0.012491  -0.010463   0.000647
     3  C   -0.034621  -0.037683   0.000006
     4  N    0.328874   0.005761   0.000438
     5  N    0.005926   0.327722  -0.000304
     6  N    0.000059  -0.000740   0.340511
     7  N   -0.000149   0.015048   0.005645
     8  C   -0.000159  -0.000651  -0.037566
     9  O    0.000000  -0.000011   0.006264
    10  O    0.005965   0.004062   0.000002
    11  C   -0.022886  -0.001853  -0.004991
    12  O    0.004658  -0.000053   0.000249
    13  H    0.271210   0.000029   0.000008
    14  H    0.000029   0.276146   0.000000
    15  H    0.000008   0.000000   0.283720
 Mulliken charges:
               1
     1  C    0.618917
     2  C   -0.086662
     3  C    0.471538
     4  N   -0.517178
     5  N   -0.478183
     6  N   -0.468663
     7  N   -0.380694
     8  C    0.439552
     9  O   -0.675115
    10  O   -0.536075
    11  C   -0.014383
    12  O   -0.568935
    13  H    0.410261
    14  H    0.399767
    15  H    0.385852
 Sum of Mulliken charges =  -1.00000
 Mulliken charges with hydrogens summed into heavy atoms:
               1
     1  C    0.618917
     2  C   -0.086662
     3  C    0.471538
     4  N   -0.106917
     5  N   -0.078416
     6  N   -0.082810
     7  N   -0.380694
     8  C    0.439552
     9  O   -0.675115
    10  O   -0.536075
    11  C   -0.014383
    12  O   -0.568935
 Electronic spatial extent (au):  <R**2>=           1938.7236
 Charge=             -1.0000 electrons
 Dipole moment (field-independent basis, Debye):
    X=             -6.0533    Y=              0.7240    Z=             -0.0015  Tot=              6.0964
 Quadrupole moment (field-independent basis, Debye-Ang):
   XX=           -124.8414   YY=            -87.2963   ZZ=            -70.1544
   XY=              8.5950   XZ=             -0.0045   YZ=              0.0022
 Traceless Quadrupole moment (field-independent basis, Debye-Ang):
   XX=            -30.7441   YY=              6.8011   ZZ=             23.9430
   XY=              8.5950   XZ=             -0.0045   YZ=              0.0022
 Octapole moment (field-independent basis, Debye-Ang**2):
  XXX=           -105.5778  YYY=            -45.8567  ZZZ=             -0.0001  XYY=             12.4635
  XXY=             78.6979  XXZ=             -0.0080  XZZ=             -4.0040  YZZ=              0.9266
  YYZ=              0.0021  XYZ=              0.0089
 Hexadecapole moment (field-independent basis, Debye-Ang**3):
 XXXX=          -2539.0938 YYYY=           -853.2335 ZZZZ=            -70.3224 XXXY=            -32.2754
 XXXZ=             -0.0327 YYYX=            100.2211 YYYZ=             -0.0056 ZZZX=             -0.0051
 ZZZY=             -0.0029 XXYY=           -463.4361 XXZZ=           -301.5513 YYZZ=           -137.1351
 XXYZ=              0.0082 YYXZ=              0.0001 ZZXY=              3.9892
 N-N= 6.774536043658D+02 E-N=-2.860490938682D+03  KE= 6.348874118291D+02
 D1PCM: PCM CHGder 1st derivatives, ID1Alg=3 FixD1E=F DoIter=F DoCFld=F I1PDM=0.
 Calling FoFJK, ICntrl=      2127 FMM=F ISym2X=0 I1Cent= 0 IOpClX= 0 NMat=1 NMatS=1 NMatT=0.
 ***** Axes restored to original set *****
 -------------------------------------------------------------------
 Center     Atomic                   Forces (Hartrees/Bohr)
 Number     Number              X              Y              Z
 -------------------------------------------------------------------
      1        6           0.003533380   -0.002365937    0.000009464
      2        6          -0.001794756    0.002630407    0.000028381
      3        6           0.002775393    0.000546330    0.000039154
      4        7           0.004586009   -0.000819310    0.000002080
      5        7          -0.001984879    0.003922709   -0.000005990
      6        7           0.001499238   -0.007190152   -0.000084511
      7        7           0.001834930    0.005575087   -0.000144396
      8        6          -0.009436196    0.002556044    0.000304791
      9        8          -0.002377368    0.000013951   -0.000090880
     10        8           0.005900567    0.003405549   -0.000013615
     11        6          -0.004469690   -0.000296259   -0.000044685
     12        8           0.000730628   -0.008156010    0.000015284
     13        1          -0.001407730    0.000811413   -0.000000470
     14        1          -0.000168087   -0.001668031   -0.000002749
     15        1           0.000778562    0.001034209   -0.000011858
 -------------------------------------------------------------------
 Cartesian Forces:  Max     0.009436196 RMS     0.003009877

 GradGradGradGradGradGradGradGradGradGradGradGradGradGradGradGradGradGrad
 Berny optimization.
 FormGI is forming the generalized inverse of G from B-inverse, IUseBI=4.
 Internal  Forces:  Max     0.008540604 RMS     0.002518389
 Search for a local minimum.
 Step number   1 out of a maximum of   87
 All quantities printed in internal units (Hartrees-Bohrs-Radians)
 Mixed Optimization -- RFO/linear search
 Second derivative matrix not updated -- first step.
 ITU=  0
     Eigenvalues ---    0.01632   0.01739   0.01797   0.01823   0.01872
     Eigenvalues ---    0.01902   0.01997   0.02006   0.02014   0.02016
     Eigenvalues ---    0.02132   0.02226   0.16000   0.16000   0.16000
     Eigenvalues ---    0.23429   0.23502   0.23804   0.25000   0.25000
     Eigenvalues ---    0.25000   0.25000   0.25000   0.39124   0.41123
     Eigenvalues ---    0.43268   0.43978   0.45493   0.45623   0.46253
     Eigenvalues ---    0.46565   0.47555   0.48150   0.48661   0.49811
     Eigenvalues ---    0.55873   0.83979   0.85204   0.89636
 RFO step:  Lambda=-9.81295277D-04 EMin= 1.63199490D-02
 Linear search not attempted -- first point.
 Iteration  1 RMS(Cart)=  0.00809122 RMS(Int)=  0.00001695
 Iteration  2 RMS(Cart)=  0.00001762 RMS(Int)=  0.00000558
 Iteration  3 RMS(Cart)=  0.00000000 RMS(Int)=  0.00000558
 Variable       Old X    -DE/DX   Delta X   Delta X   Delta X     New X
                                 (Linear)    (Quad)   (Total)
    R1        2.62726  -0.00533   0.00000  -0.01045  -0.01047   2.61679
    R2        2.63779  -0.00382   0.00000  -0.00796  -0.00796   2.62983
    R3        2.64798  -0.00332   0.00000  -0.00709  -0.00709   2.64089
    R4        2.60210  -0.00408   0.00000  -0.00809  -0.00809   2.59401
    R5        2.52517  -0.00424   0.00000  -0.00722  -0.00722   2.51794
    R6        2.60284  -0.00550   0.00000  -0.01134  -0.01133   2.59151
    R7        2.59755  -0.00615   0.00000  -0.01241  -0.01240   2.58515
    R8        2.33101  -0.00680   0.00000  -0.00758  -0.00758   2.32343
    R9        2.68677  -0.00753   0.00000  -0.01796  -0.01796   2.66882
   R10        1.91407   0.00162   0.00000   0.00355   0.00355   1.91762
   R11        1.91259   0.00168   0.00000   0.00368   0.00368   1.91627
   R12        2.62169  -0.00854   0.00000  -0.01820  -0.01819   2.60350
   R13        1.90547   0.00128   0.00000   0.00277   0.00277   1.90824
   R14        2.61651  -0.00645   0.00000  -0.01381  -0.01380   2.60270
   R15        2.35839  -0.00237   0.00000  -0.00282  -0.00282   2.35557
   R16        2.35225  -0.00819   0.00000  -0.00961  -0.00961   2.34264
    A1        1.81119   0.00076   0.00000   0.00421   0.00419   1.81538
    A2        2.14461  -0.00151   0.00000  -0.00557  -0.00557   2.13903
    A3        2.32739   0.00075   0.00000   0.00137   0.00138   2.32877
    A4        2.09990   0.00090   0.00000   0.00416   0.00416   2.10406
    A5        1.98400  -0.00097   0.00000  -0.00309  -0.00310   1.98089
    A6        2.19929   0.00007   0.00000  -0.00107  -0.00105   2.19823
    A7        2.00655   0.00203   0.00000   0.00771   0.00772   2.01426
    A8        2.13785  -0.00134   0.00000  -0.00513  -0.00514   2.13272
    A9        2.13878  -0.00070   0.00000  -0.00258  -0.00258   2.13620
   A10        2.24296  -0.00113   0.00000  -0.00535  -0.00535   2.23761
   A11        2.01405   0.00051   0.00000   0.00235   0.00235   2.01640
   A12        2.02618   0.00062   0.00000   0.00300   0.00300   2.02918
   A13        2.12561  -0.00157   0.00000  -0.00666  -0.00666   2.11894
   A14        2.10845   0.00084   0.00000   0.00367   0.00367   2.11212
   A15        2.04913   0.00073   0.00000   0.00299   0.00299   2.05212
   A16        1.88702  -0.00159   0.00000  -0.00683  -0.00683   1.88019
   A17        2.21506   0.00101   0.00000   0.00476   0.00476   2.21983
   A18        2.18110   0.00058   0.00000   0.00207   0.00207   2.18317
   A19        1.83226  -0.00080   0.00000  -0.00363  -0.00362   1.82864
   A20        1.91032   0.00260   0.00000   0.00935   0.00936   1.91968
   A21        2.16943  -0.00114   0.00000  -0.00405  -0.00407   2.16537
   A22        2.20343  -0.00145   0.00000  -0.00529  -0.00530   2.19813
   A23        1.94675   0.00127   0.00000   0.00572   0.00571   1.95247
   A24        2.25587  -0.00076   0.00000  -0.00336  -0.00336   2.25251
   A25        2.08056  -0.00051   0.00000  -0.00236  -0.00236   2.07821
    D1       -3.14159   0.00000   0.00000   0.00021   0.00021  -3.14138
    D2        0.00019  -0.00001   0.00000  -0.00039  -0.00039  -0.00020
    D3        0.00011  -0.00001   0.00000  -0.00025  -0.00025  -0.00014
    D4       -3.14129  -0.00002   0.00000  -0.00085  -0.00085   3.14105
    D5        0.00048  -0.00003   0.00000  -0.00162  -0.00161  -0.00114
    D6       -3.14119  -0.00002   0.00000  -0.00116  -0.00115   3.14084
    D7       -3.14124  -0.00002   0.00000  -0.00109  -0.00109   3.14086
    D8        0.00028  -0.00001   0.00000  -0.00063  -0.00063  -0.00035
    D9       -0.00021   0.00001   0.00000   0.00063   0.00063   0.00042
   D10       -3.14154   0.00000   0.00000  -0.00011  -0.00011   3.14153
   D11        3.14153   0.00000   0.00000   0.00001   0.00002   3.14155
   D12        0.00019  -0.00001   0.00000  -0.00073  -0.00072  -0.00053
   D13        0.00011  -0.00001   0.00000  -0.00043  -0.00043  -0.00032
   D14       -3.14151  -0.00001   0.00000  -0.00029  -0.00029   3.14139
   D15        3.14149   0.00001   0.00000   0.00024   0.00024  -3.14146
   D16       -0.00013   0.00001   0.00000   0.00039   0.00038   0.00025
   D17       -0.00078   0.00005   0.00000   0.00221   0.00220   0.00142
   D18        3.14102   0.00004   0.00000   0.00157   0.00157  -3.14060
   D19        0.00007   0.00000   0.00000  -0.00016  -0.00016  -0.00010
   D20       -3.14150  -0.00001   0.00000  -0.00032  -0.00032   3.14137
   D21        3.14144   0.00001   0.00000   0.00053   0.00052  -3.14122
   D22       -0.00013   0.00001   0.00000   0.00037   0.00037   0.00024
   D23       -0.00019   0.00001   0.00000   0.00061   0.00061   0.00042
   D24        3.14143   0.00001   0.00000   0.00047   0.00047  -3.14128
   D25       -3.14156   0.00000   0.00000  -0.00008  -0.00008   3.14155
   D26        0.00006   0.00000   0.00000  -0.00021  -0.00022  -0.00016
   D27        0.00012  -0.00001   0.00000  -0.00043  -0.00044  -0.00031
   D28        3.14149   0.00001   0.00000   0.00022   0.00022  -3.14147
   D29       -3.14150  -0.00001   0.00000  -0.00028  -0.00028   3.14141
   D30       -0.00013   0.00001   0.00000   0.00038   0.00038   0.00025
   D31       -0.00098   0.00006   0.00000   0.00305   0.00305   0.00208
   D32       -3.14074  -0.00006   0.00000  -0.00282  -0.00283   3.13961
   D33        3.14069   0.00005   0.00000   0.00260   0.00260  -3.13989
   D34        0.00092  -0.00007   0.00000  -0.00327  -0.00328  -0.00236
   D35        0.00106  -0.00007   0.00000  -0.00317  -0.00318  -0.00213
   D36        3.14078   0.00005   0.00000   0.00284   0.00284  -3.13957
         Item               Value     Threshold  Converged?
 Maximum Force            0.008541     0.000450     NO 
 RMS     Force            0.002518     0.000300     NO 
 Maximum Displacement     0.030930     0.001800     NO 
 RMS     Displacement     0.008095     0.001200     NO 
 Predicted change in Energy=-4.918036D-04
 GradGradGradGradGradGradGradGradGradGradGradGradGradGradGradGradGradGrad

                          Input orientation:                          
 ---------------------------------------------------------------------
 Center     Atomic      Atomic             Coordinates (Angstroms)
 Number     Number       Type             X           Y           Z
 ---------------------------------------------------------------------
      1          6           0        0.375893    0.603393    0.000164
      2          6           0        0.318577   -0.780166    0.000064
      3          6           0       -2.071166   -0.735938    0.000146
      4          7           0       -1.951565    0.630206    0.000099
      5          7           0       -0.891390   -1.428440   -0.000129
      6          7           0        1.738910    0.884206    0.000071
      7          7           0        1.517496   -1.361528   -0.000321
      8          6           0        2.414570   -0.316452    0.001413
      9          8           0        3.656893   -0.418549   -0.000345
     10          8           0       -3.164783   -1.297801   -0.000066
     11          6           0       -0.769851    1.403561   -0.000090
     12          8           0       -0.859124    2.640016    0.000025
     13          1           0       -2.825602    1.145762    0.000098
     14          1           0       -0.941525   -2.441245   -0.000382
     15          1           0        2.174360    1.795291   -0.000500
 ---------------------------------------------------------------------
                    Distance matrix (angstroms):
                    1          2          3          4          5
     1  C    0.000000
     2  C    1.384746   0.000000
     3  C    2.789607   2.390152   0.000000
     4  N    2.327613   2.672581   1.371369   0.000000
     5  N    2.394650   1.372690   1.368003   2.315598   0.000000
     6  N    1.391644   2.188032   4.140236   3.699206   3.502400
     7  N    2.272481   1.332437   3.642782   4.000173   2.409815
     8  C    2.236587   2.146677   4.505308   4.467583   3.487964
     9  O    3.436471   3.357845   5.736846   5.705672   4.659051
    10  O    4.018821   3.521610   1.229507   2.277961   2.277144
    11  C    1.397497   2.439946   2.504172   1.412277   2.834607
    12  O    2.381828   3.617268   3.586937   2.287524   4.068584
    13  H    3.247112   3.687148   2.027306   1.014761   3.219890
    14  H    3.317441   2.084956   2.045522   3.233263   1.014046
    15  H    2.157569   3.174415   4.942835   4.287270   4.448737
                    6          7          8          9         10
     6  N    0.000000
     7  N    2.256623   0.000000
     8  C    1.377714   1.377291   0.000000
     9  O    2.318584   2.337997   1.246513   0.000000
    10  O    5.367249   4.682712   5.665000   6.878106   0.000000
    11  C    2.561955   3.588548   3.619252   4.787082   3.610132
    12  O    3.135706   4.654104   4.411097   5.454286   4.563164
    13  H    4.572000   5.014878   5.440356   6.668569   2.466991
    14  H    4.271225   2.685624   3.972169   5.023620   2.500068
    15  H    1.009798   3.224434   2.125361   2.664394   6.170386
                   11         12         13         14         15
    11  C    0.000000
    12  O    1.239674   0.000000
    13  H    2.071852   2.469784   0.000000
    14  H    3.848637   5.081930   4.051712   0.000000
    15  H    2.970157   3.148902   5.041974   5.258990   0.000000
 Stoichiometry    C5H3N4O3(1-)
 Framework group  C1[X(C5H3N4O3)]
 Deg. of freedom    39
 Full point group                 C1      NOp   1
 Largest Abelian subgroup         C1      NOp   1
 Largest concise Abelian subgroup C1      NOp   1
                         Standard orientation:                         
 ---------------------------------------------------------------------
 Center     Atomic      Atomic             Coordinates (Angstroms)
 Number     Number       Type             X           Y           Z
 ---------------------------------------------------------------------
      1          6           0        0.376160    0.603343    0.000113
      2          6           0        0.318949   -0.780220    0.000013
      3          6           0       -2.070797   -0.736174    0.000095
      4          7           0       -1.951300    0.629979    0.000048
      5          7           0       -0.890968   -1.428586   -0.000180
      6          7           0        1.739156    0.884261    0.000020
      7          7           0        1.517912   -1.361490   -0.000372
      8          6           0        2.414907   -0.316345    0.001362
      9          8           0        3.657238   -0.418349   -0.000396
     10          8           0       -3.164371   -1.298120   -0.000118
     11          6           0       -0.769646    1.403424   -0.000141
     12          8           0       -0.859012    2.639873   -0.000026
     13          1           0       -2.825377    1.145469    0.000047
     14          1           0       -0.941026   -2.441395   -0.000433
     15          1           0        2.174536    1.795379   -0.000551
 ---------------------------------------------------------------------
 Rotational constants (GHZ):      1.9011378      0.7541502      0.5399578
 Standard basis: 6-311+G(d,p) (5D, 7F)
 There are   294 symmetry adapted cartesian basis functions of A   symmetry.
 There are   282 symmetry adapted basis functions of A   symmetry.
   282 basis functions,   456 primitive gaussians,   294 cartesian basis functions
    43 alpha electrons       43 beta electrons
       nuclear repulsion energy       680.1834369778 Hartrees.
 NAtoms=   15 NActive=   15 NUniq=   15 SFac= 1.00D+00 NAtFMM=   60 NAOKFM=F Big=F
 Integral buffers will be    131072 words long.
 Raffenetti 2 integral format.
 Two-electron integral symmetry is turned on.
 ------------------------------------------------------------------------------
 Polarizable Continuum Model (PCM)
 =================================
 Model                : PCM (using non-symmetric T matrix).
 Atomic radii         : SMD-Coulomb.
 Polarization charges : Total charges.
 Charge compensation  : None.
 Solution method      : On-the-fly selection.
 Cavity type          : VdW (van der Waals Surface) (Alpha=1.000).
 Cavity algorithm     : GePol (No added spheres)
                        Default sphere list used, NSphG=   15.
                        Lebedev-Laikov grids with approx.  5.0 points / Ang**2.
                        Smoothing algorithm: Karplus/York (Gamma=1.0000).
                        Polarization charges: spherical gaussians, with
                                              point-specific exponents (IZeta= 3).
                        Self-potential: point-specific (ISelfS= 7).
                        Self-field    : sphere-specific E.n sum rule (ISelfD= 2).
 1st derivatives      : Analytical E(r).r(x)/FMM algorithm (CHGder, D1EAlg=3).
                        Cavity 1st derivative terms included.
 Solvent              : Water, Eps=  78.355300 Eps(inf)=   1.777849
 ------------------------------------------------------------------------------
 Spheres list:
 ISph  on   Nord     Re0    Alpha      Xe            Ye            Ze
    1   C      1    1.8500  1.000      0.376160      0.603343      0.000113
    2   C      2    1.8500  1.000      0.318949     -0.780220      0.000013
    3   C      3    1.8500  1.000     -2.070797     -0.736174      0.000095
    4   N      4    1.8900  1.000     -1.951300      0.629979      0.000048
    5   N      5    1.8900  1.000     -0.890968     -1.428586     -0.000180
    6   N      6    1.8900  1.000      1.739156      0.884261      0.000020
    7   N      7    1.8900  1.000      1.517912     -1.361490     -0.000372
    8   C      8    1.8500  1.000      2.414907     -0.316345      0.001362
    9   O      9    1.5200  1.000      3.657238     -0.418349     -0.000396
   10   O     10    1.5200  1.000     -3.164371     -1.298120     -0.000118
   11   C     11    1.8500  1.000     -0.769646      1.403424     -0.000141
   12   O     12    1.5200  1.000     -0.859012      2.639873     -0.000026
   13   H     13    1.2000  1.000     -2.825377      1.145469      0.000047
   14   H     14    1.2000  1.000     -0.941026     -2.441395     -0.000433
   15   H     15    1.2000  1.000      2.174536      1.795379     -0.000551
 ------------------------------------------------------------------------------
 ------------------------------------------------------------------------------
 Atomic radii for non-electrostatic terms: SMD-CDS.
 ------------------------------------------------------------------------------
 Nuclear repulsion after PCM non-electrostatic terms =      680.1895058097 Hartrees.
 One-electron integrals computed using PRISM.
 NBasis=   282 RedAO= T EigKep=  4.92D-06  NBF=   282
 NBsUse=   282 1.00D-06 EigRej= -1.00D+00 NBFU=   282
 Initial guess from the checkpoint file:  "/scratch/slurm-3049836/Gau-8089.chk"
 B after Tr=     0.000000    0.000000    0.000000
         Rot=    1.000000   -0.000007    0.000006   -0.000066 Ang=  -0.01 deg.
 ExpMin= 4.38D-02 ExpMax= 8.59D+03 ExpMxC= 1.30D+03 IAcc=2 IRadAn=         4 AccDes= 0.00D+00
 Harris functional with IExCor= 1009 and IRadAn=       4 diagonalized for initial guess.
 HarFok:  IExCor= 1009 AccDes= 0.00D+00 IRadAn=         4 IDoV= 1 UseB2=F ITyADJ=14
 ICtDFT=  3500011 ScaDFX=  1.000000  1.000000  1.000000  1.000000
 FoFCou: FMM=F IPFlag=           0 FMFlag=      100000 FMFlg1=           0
         NFxFlg=           0 DoJE=T BraDBF=F KetDBF=T FulRan=T
         wScrn=  0.000000 ICntrl=     500 IOpCl=  0 I1Cent=   200000004 NGrid=           0
         NMat0=    1 NMatS0=      1 NMatT0=    0 NMatD0=    1 NMtDS0=    0 NMtDT0=    0
 Petite list used in FoFCou.
 Keep R1 ints in memory in canonical form, NReq=809265418.
 Requested convergence on RMS density matrix=1.00D-08 within 128 cycles.
 Requested convergence on MAX density matrix=1.00D-06.
 Requested convergence on             energy=1.00D-06.
 No special actions if energy rises.
 Inv3:  Mode=1 IEnd=     5243052.
 Iteration    1 A*A^-1 deviation from unit magnitude is 5.77D-15 for    429.
 Iteration    1 A*A^-1 deviation from orthogonality  is 4.25D-15 for   1071    585.
 Iteration    1 A^-1*A deviation from unit magnitude is 5.88D-15 for     39.
 Iteration    1 A^-1*A deviation from orthogonality  is 2.53D-09 for   1120   1082.
 Iteration    2 A*A^-1 deviation from unit magnitude is 9.77D-15 for     39.
 Iteration    2 A*A^-1 deviation from orthogonality  is 8.85D-15 for   1198    114.
 Iteration    2 A^-1*A deviation from unit magnitude is 1.78D-15 for    224.
 Iteration    2 A^-1*A deviation from orthogonality  is 6.52D-16 for   1226     92.
 Error on total polarization charges =  0.05477
 SCF Done:  E(RM062X) =  -637.220513753     A.U. after   12 cycles
            NFock= 12  Conv=0.29D-08     -V/T= 2.0034
 SMD-CDS (non-electrostatic) energy       (kcal/mol) =       3.81
 (included in total energy above)
 D1PCM: PCM CHGder 1st derivatives, ID1Alg=3 FixD1E=F DoIter=F DoCFld=F I1PDM=0.
 Calling FoFJK, ICntrl=      2127 FMM=F ISym2X=0 I1Cent= 0 IOpClX= 0 NMat=1 NMatS=1 NMatT=0.
 ***** Axes restored to original set *****
 -------------------------------------------------------------------
 Center     Atomic                   Forces (Hartrees/Bohr)
 Number     Number              X              Y              Z
 -------------------------------------------------------------------
      1        6           0.001000615   -0.000042594   -0.000028142
      2        6          -0.001563832    0.000338873   -0.000046373
      3        6           0.000920837   -0.000323887   -0.000081270
      4        7           0.000916549    0.000982968   -0.000001173
      5        7          -0.000431198    0.000071460    0.000017793
      6        7           0.000345030   -0.001226344    0.000190733
      7        7           0.001855511    0.000839284    0.000288584
      8        6          -0.002839213    0.000203922   -0.000656082
      9        8           0.003273143   -0.000379709    0.000202602
     10        8          -0.001246617   -0.000455587    0.000028028
     11        6          -0.002963860   -0.000467916    0.000081004
     12        8           0.000655330    0.000643504   -0.000028741
     13        1           0.000036720   -0.000096038    0.000001047
     14        1          -0.000046445    0.000102746    0.000006715
     15        1           0.000087430   -0.000190684    0.000025277
 -------------------------------------------------------------------
 Cartesian Forces:  Max     0.003273143 RMS     0.000983531

 GradGradGradGradGradGradGradGradGradGradGradGradGradGradGradGradGradGrad
 Berny optimization.
 Using GEDIIS/GDIIS optimizer.
 FormGI is forming the generalized inverse of G from B-inverse, IUseBI=4.
 Internal  Forces:  Max     0.003294655 RMS     0.000571616
 Search for a local minimum.
 Step number   2 out of a maximum of   87
 All quantities printed in internal units (Hartrees-Bohrs-Radians)
 Mixed Optimization -- En-DIIS/RFO-DIIS
 Update second derivatives using D2CorX and points    1    2
 DE= -4.68D-04 DEPred=-4.92D-04 R= 9.51D-01
 TightC=F SS=  1.41D+00  RLast= 4.77D-02 DXNew= 5.0454D-01 1.4318D-01
 Trust test= 9.51D-01 RLast= 4.77D-02 DXMaxT set to 3.00D-01
 ITU=  1  0
 Use linear search instead of GDIIS.
     Eigenvalues ---    0.01632   0.01740   0.01797   0.01823   0.01876
     Eigenvalues ---    0.01906   0.01996   0.02006   0.02014   0.02016
     Eigenvalues ---    0.02132   0.02227   0.15982   0.16000   0.16001
     Eigenvalues ---    0.23241   0.23482   0.24133   0.24801   0.25000
     Eigenvalues ---    0.25000   0.25000   0.25476   0.37245   0.41157
     Eigenvalues ---    0.43351   0.43447   0.44554   0.45513   0.45651
     Eigenvalues ---    0.46268   0.47565   0.48118   0.49376   0.50272
     Eigenvalues ---    0.58068   0.83496   0.87325   0.94374
 RFO step:  Lambda=-4.77332989D-05 EMin= 1.63194314D-02
 Quartic linear search produced a step of -0.04943.
 Iteration  1 RMS(Cart)=  0.00179821 RMS(Int)=  0.00000681
 Iteration  2 RMS(Cart)=  0.00000512 RMS(Int)=  0.00000516
 Iteration  3 RMS(Cart)=  0.00000000 RMS(Int)=  0.00000516
 Variable       Old X    -DE/DX   Delta X   Delta X   Delta X     New X
                                 (Linear)    (Quad)   (Total)
    R1        2.61679  -0.00028   0.00052  -0.00134  -0.00083   2.61596
    R2        2.62983   0.00077   0.00039   0.00072   0.00112   2.63094
    R3        2.64089   0.00150   0.00035   0.00247   0.00282   2.64371
    R4        2.59401   0.00048   0.00040   0.00014   0.00054   2.59454
    R5        2.51794   0.00165   0.00036   0.00214   0.00250   2.52044
    R6        2.59151   0.00069   0.00056   0.00016   0.00072   2.59223
    R7        2.58515   0.00001   0.00061  -0.00123  -0.00062   2.58453
    R8        2.32343   0.00132   0.00037   0.00065   0.00103   2.32446
    R9        2.66882  -0.00070   0.00089  -0.00339  -0.00250   2.66631
   R10        1.91762  -0.00009  -0.00018   0.00017   0.00000   1.91762
   R11        1.91627  -0.00009  -0.00018   0.00018  -0.00001   1.91626
   R12        2.60350  -0.00045   0.00090  -0.00294  -0.00204   2.60146
   R13        1.90824  -0.00012  -0.00014   0.00003  -0.00010   1.90814
   R14        2.60270  -0.00072   0.00068  -0.00287  -0.00219   2.60051
   R15        2.35557   0.00329   0.00014   0.00345   0.00359   2.35916
   R16        2.34264   0.00059   0.00047  -0.00029   0.00018   2.34283
    A1        1.81538  -0.00029  -0.00021  -0.00057  -0.00078   1.81460
    A2        2.13903  -0.00030   0.00028  -0.00159  -0.00131   2.13772
    A3        2.32877   0.00059  -0.00007   0.00216   0.00209   2.33086
    A4        2.10406   0.00009  -0.00021   0.00064   0.00043   2.10449
    A5        1.98089  -0.00066   0.00015  -0.00229  -0.00214   1.97875
    A6        2.19823   0.00056   0.00005   0.00166   0.00171   2.19994
    A7        2.01426  -0.00012  -0.00038   0.00020  -0.00018   2.01408
    A8        2.13272  -0.00008   0.00025  -0.00077  -0.00051   2.13221
    A9        2.13620   0.00020   0.00013   0.00056   0.00069   2.13689
   A10        2.23761   0.00013   0.00026  -0.00006   0.00020   2.23781
   A11        2.01640  -0.00016  -0.00012  -0.00058  -0.00070   2.01570
   A12        2.02918   0.00003  -0.00015   0.00064   0.00050   2.02967
   A13        2.11894   0.00012   0.00033  -0.00014   0.00019   2.11913
   A14        2.11212  -0.00004  -0.00018   0.00021   0.00003   2.11215
   A15        2.05212  -0.00008  -0.00015  -0.00007  -0.00022   2.05190
   A16        1.88019   0.00078   0.00034   0.00206   0.00240   1.88259
   A17        2.21983  -0.00027  -0.00024  -0.00017  -0.00041   2.21942
   A18        2.18317  -0.00051  -0.00010  -0.00189  -0.00200   2.18117
   A19        1.82864   0.00069   0.00018   0.00246   0.00264   1.83128
   A20        1.91968  -0.00053  -0.00046  -0.00165  -0.00213   1.91755
   A21        2.16537   0.00034   0.00020   0.00119   0.00136   2.16673
   A22        2.19813   0.00019   0.00026   0.00051   0.00074   2.19888
   A23        1.95247   0.00008  -0.00028   0.00095   0.00067   1.95314
   A24        2.25251  -0.00082   0.00017  -0.00349  -0.00333   2.24919
   A25        2.07821   0.00074   0.00012   0.00254   0.00265   2.08086
    D1       -3.14138  -0.00001  -0.00001  -0.00066  -0.00067   3.14113
    D2       -0.00020   0.00002   0.00002   0.00046   0.00048   0.00028
    D3       -0.00014   0.00001   0.00001   0.00040   0.00041   0.00027
    D4        3.14105   0.00004   0.00004   0.00152   0.00156  -3.14058
    D5       -0.00114   0.00007   0.00008   0.00352   0.00360   0.00247
    D6        3.14084   0.00005   0.00006   0.00252   0.00258  -3.13976
    D7        3.14086   0.00005   0.00005   0.00229   0.00235  -3.13998
    D8       -0.00035   0.00003   0.00003   0.00129   0.00133   0.00098
    D9        0.00042  -0.00003  -0.00003  -0.00117  -0.00120  -0.00078
   D10        3.14153   0.00000   0.00001   0.00009   0.00010  -3.14156
   D11        3.14155   0.00000   0.00000   0.00024   0.00024  -3.14140
   D12       -0.00053   0.00003   0.00004   0.00151   0.00154   0.00101
   D13       -0.00032   0.00002   0.00002   0.00091   0.00094   0.00062
   D14        3.14139   0.00001   0.00001   0.00059   0.00061  -3.14119
   D15       -3.14146  -0.00001  -0.00001  -0.00035  -0.00037   3.14136
   D16        0.00025  -0.00002  -0.00002  -0.00068  -0.00070  -0.00044
   D17        0.00142  -0.00010  -0.00011  -0.00419  -0.00430  -0.00288
   D18       -3.14060  -0.00007  -0.00008  -0.00300  -0.00308   3.13951
   D19       -0.00010   0.00001   0.00001   0.00032   0.00033   0.00024
   D20        3.14137   0.00002   0.00002   0.00067   0.00068  -3.14114
   D21       -3.14122  -0.00002  -0.00003  -0.00104  -0.00106   3.14090
   D22        0.00024  -0.00002  -0.00002  -0.00070  -0.00071  -0.00047
   D23        0.00042  -0.00003  -0.00003  -0.00122  -0.00125  -0.00083
   D24       -3.14128  -0.00002  -0.00002  -0.00091  -0.00094   3.14097
   D25        3.14155   0.00000   0.00000   0.00014   0.00014  -3.14149
   D26       -0.00016   0.00001   0.00001   0.00045   0.00046   0.00031
   D27       -0.00031   0.00002   0.00002   0.00084   0.00086   0.00055
   D28       -3.14147  -0.00001  -0.00001  -0.00028  -0.00030   3.14141
   D29        3.14141   0.00001   0.00001   0.00049   0.00051  -3.14127
   D30        0.00025  -0.00001  -0.00002  -0.00063  -0.00065  -0.00040
   D31        0.00208  -0.00014  -0.00015  -0.00630  -0.00645  -0.00437
   D32        3.13961   0.00013   0.00014   0.00603   0.00617  -3.13740
   D33       -3.13989  -0.00011  -0.00013  -0.00533  -0.00545   3.13784
   D34       -0.00236   0.00015   0.00016   0.00700   0.00716   0.00481
   D35       -0.00213   0.00014   0.00016   0.00637   0.00653   0.00440
   D36       -3.13957  -0.00013  -0.00014  -0.00625  -0.00638   3.13724
         Item               Value     Threshold  Converged?
 Maximum Force            0.003295     0.000450     NO 
 RMS     Force            0.000572     0.000300     NO 
 Maximum Displacement     0.008120     0.001800     NO 
 RMS     Displacement     0.001798     0.001200     NO 
 Predicted change in Energy=-2.519694D-05
 GradGradGradGradGradGradGradGradGradGradGradGradGradGradGradGradGradGrad

                          Input orientation:                          
 ---------------------------------------------------------------------
 Center     Atomic      Atomic             Coordinates (Angstroms)
 Number     Number       Type             X           Y           Z
 ---------------------------------------------------------------------
      1          6           0        0.375651    0.603448   -0.000285
      2          6           0        0.317897   -0.779653   -0.000112
      3          6           0       -2.071947   -0.736193   -0.000333
      4          7           0       -1.952469    0.630342   -0.000191
      5          7           0       -0.892253   -1.428185    0.000217
      6          7           0        1.739556    0.882872    0.000018
      7          7           0        1.519059   -1.359416    0.000614
      8          6           0        2.416241   -0.315965   -0.002884
      9          8           0        3.660446   -0.418309    0.000907
     10          8           0       -3.166271   -1.297868    0.000053
     11          6           0       -0.772106    1.403342    0.000185
     12          8           0       -0.858491    2.640099    0.000067
     13          1           0       -2.826921    1.145191   -0.000181
     14          1           0       -0.942318   -2.440990    0.000695
     15          1           0        2.175619    1.793601    0.001477
 ---------------------------------------------------------------------
                    Distance matrix (angstroms):
                    1          2          3          4          5
     1  C    0.000000
     2  C    1.384307   0.000000
     3  C    2.790229   2.390240   0.000000
     4  N    2.328275   2.672574   1.371749   0.000000
     5  N    2.394809   1.372974   1.367674   2.315511   0.000000
     6  N    1.392234   2.187488   4.141127   3.700651   3.502485
     7  N    2.271611   1.333760   3.644686   4.001330   2.412292
     8  C    2.238155   2.148968   4.507820   4.470026   3.490441
     9  O    3.440039   3.362024   5.741201   5.710034   4.663359
    10  O    4.019977   3.522496   1.230050   2.278445   2.277749
    11  C    1.398991   2.439994   2.503437   1.410952   2.834074
    12  O    2.381397   3.616433   3.587732   2.288211   4.068423
    13  H    3.248069   3.687128   2.027213   1.014759   3.219504
    14  H    3.317476   2.085230   2.045091   3.233186   1.014042
    15  H    2.157858   3.173763   4.943853   4.288855   4.448791
                    6          7          8          9         10
     6  N    0.000000
     7  N    2.253103   0.000000
     8  C    1.376634   1.376132   0.000000
     9  O    2.320106   2.339064   1.248413   0.000000
    10  O    5.368684   4.685734   5.668208   6.883146   0.000000
    11  C    2.565021   3.589187   3.622372   4.792278   3.609510
    12  O    3.136510   4.652833   4.411597   5.456615   4.564365
    13  H    4.574006   5.016034   5.442953   6.673116   2.466515
    14  H    4.270891   2.688527   3.974376   5.027592   2.500539
    15  H    1.009743   3.220650   2.123249   2.664068   6.171950
                   11         12         13         14         15
    11  C    0.000000
    12  O    1.239770   0.000000
    13  H    2.070968   2.471734   0.000000
    14  H    3.848098   5.081780   4.051225   0.000000
    15  H    2.973446   3.149981   5.044388   5.258640   0.000000
 Stoichiometry    C5H3N4O3(1-)
 Framework group  C1[X(C5H3N4O3)]
 Deg. of freedom    39
 Full point group                 C1      NOp   1
 Largest Abelian subgroup         C1      NOp   1
 Largest concise Abelian subgroup C1      NOp   1
                         Standard orientation:                         
 ---------------------------------------------------------------------
 Center     Atomic      Atomic             Coordinates (Angstroms)
 Number     Number       Type             X           Y           Z
 ---------------------------------------------------------------------
      1          6           0        0.375852    0.603228   -0.000217
      2          6           0        0.318082   -0.779873   -0.000045
      3          6           0       -2.071762   -0.736385   -0.000265
      4          7           0       -1.952268    0.630150   -0.000123
      5          7           0       -0.892076   -1.428390    0.000285
      6          7           0        1.739760    0.882636    0.000085
      7          7           0        1.519237   -1.359650    0.000682
      8          6           0        2.416431   -0.316209   -0.002816
      9          8           0        3.660635   -0.418568    0.000974
     10          8           0       -3.166092   -1.298047    0.000121
     11          6           0       -0.771896    1.403135    0.000252
     12          8           0       -0.858266    2.639893    0.000135
     13          1           0       -2.826714    1.145008   -0.000113
     14          1           0       -0.942153   -2.441195    0.000763
     15          1           0        2.175834    1.793360    0.001545
 ---------------------------------------------------------------------
 Rotational constants (GHZ):      1.9021254      0.7531367      0.5395177
 Standard basis: 6-311+G(d,p) (5D, 7F)
 There are   294 symmetry adapted cartesian basis functions of A   symmetry.
 There are   282 symmetry adapted basis functions of A   symmetry.
   282 basis functions,   456 primitive gaussians,   294 cartesian basis functions
    43 alpha electrons       43 beta electrons
       nuclear repulsion energy       680.0257950734 Hartrees.
 NAtoms=   15 NActive=   15 NUniq=   15 SFac= 1.00D+00 NAtFMM=   60 NAOKFM=F Big=F
 Integral buffers will be    131072 words long.
 Raffenetti 2 integral format.
 Two-electron integral symmetry is turned on.
 ------------------------------------------------------------------------------
 Polarizable Continuum Model (PCM)
 =================================
 Model                : PCM (using non-symmetric T matrix).
 Atomic radii         : SMD-Coulomb.
 Polarization charges : Total charges.
 Charge compensation  : None.
 Solution method      : On-the-fly selection.
 Cavity type          : VdW (van der Waals Surface) (Alpha=1.000).
 Cavity algorithm     : GePol (No added spheres)
                        Default sphere list used, NSphG=   15.
                        Lebedev-Laikov grids with approx.  5.0 points / Ang**2.
                        Smoothing algorithm: Karplus/York (Gamma=1.0000).
                        Polarization charges: spherical gaussians, with
                                              point-specific exponents (IZeta= 3).
                        Self-potential: point-specific (ISelfS= 7).
                        Self-field    : sphere-specific E.n sum rule (ISelfD= 2).
 1st derivatives      : Analytical E(r).r(x)/FMM algorithm (CHGder, D1EAlg=3).
                        Cavity 1st derivative terms included.
 Solvent              : Water, Eps=  78.355300 Eps(inf)=   1.777849
 ------------------------------------------------------------------------------
 Spheres list:
 ISph  on   Nord     Re0    Alpha      Xe            Ye            Ze
    1   C      1    1.8500  1.000      0.375852      0.603228     -0.000217
    2   C      2    1.8500  1.000      0.318082     -0.779873     -0.000045
    3   C      3    1.8500  1.000     -2.071762     -0.736385     -0.000265
    4   N      4    1.8900  1.000     -1.952268      0.630150     -0.000123
    5   N      5    1.8900  1.000     -0.892076     -1.428390      0.000285
    6   N      6    1.8900  1.000      1.739760      0.882636      0.000085
    7   N      7    1.8900  1.000      1.519237     -1.359650      0.000682
    8   C      8    1.8500  1.000      2.416431     -0.316209     -0.002816
    9   O      9    1.5200  1.000      3.660635     -0.418568      0.000974
   10   O     10    1.5200  1.000     -3.166092     -1.298047      0.000121
   11   C     11    1.8500  1.000     -0.771896      1.403135      0.000252
   12   O     12    1.5200  1.000     -0.858266      2.639893      0.000135
   13   H     13    1.2000  1.000     -2.826714      1.145008     -0.000113
   14   H     14    1.2000  1.000     -0.942153     -2.441195      0.000763
   15   H     15    1.2000  1.000      2.175834      1.793360      0.001545
 ------------------------------------------------------------------------------
 ------------------------------------------------------------------------------
 Atomic radii for non-electrostatic terms: SMD-CDS.
 ------------------------------------------------------------------------------
 Nuclear repulsion after PCM non-electrostatic terms =      680.0318658027 Hartrees.
 One-electron integrals computed using PRISM.
 NBasis=   282 RedAO= T EigKep=  4.95D-06  NBF=   282
 NBsUse=   282 1.00D-06 EigRej= -1.00D+00 NBFU=   282
 Initial guess from the checkpoint file:  "/scratch/slurm-3049836/Gau-8089.chk"
 B after Tr=     0.000000    0.000000    0.000000
         Rot=    1.000000    0.000022   -0.000015    0.000019 Ang=   0.00 deg.
 Keep R1 ints in memory in canonical form, NReq=809265418.
 Requested convergence on RMS density matrix=1.00D-08 within 128 cycles.
 Requested convergence on MAX density matrix=1.00D-06.
 Requested convergence on             energy=1.00D-06.
 No special actions if energy rises.
 Inv3:  Mode=1 IEnd=     5243052.
 Iteration    1 A*A^-1 deviation from unit magnitude is 6.77D-15 for     43.
 Iteration    1 A*A^-1 deviation from orthogonality  is 3.95D-15 for   1178     51.
 Iteration    1 A^-1*A deviation from unit magnitude is 5.55D-15 for    257.
 Iteration    1 A^-1*A deviation from orthogonality  is 5.83D-09 for   1192   1176.
 Iteration    2 A*A^-1 deviation from unit magnitude is 8.44D-15 for     92.
 Iteration    2 A*A^-1 deviation from orthogonality  is 5.74D-15 for   1177     50.
 Iteration    2 A^-1*A deviation from unit magnitude is 1.33D-15 for     85.
 Iteration    2 A^-1*A deviation from orthogonality  is 4.53D-16 for   1156   1080.
 Error on total polarization charges =  0.05482
 SCF Done:  E(RM062X) =  -637.220536390     A.U. after   11 cycles
            NFock= 11  Conv=0.38D-08     -V/T= 2.0034
 SMD-CDS (non-electrostatic) energy       (kcal/mol) =       3.81
 (included in total energy above)
 D1PCM: PCM CHGder 1st derivatives, ID1Alg=3 FixD1E=F DoIter=F DoCFld=F I1PDM=0.
 Calling FoFJK, ICntrl=      2127 FMM=F ISym2X=0 I1Cent= 0 IOpClX= 0 NMat=1 NMatS=1 NMatT=0.
 ***** Axes restored to original set *****
 -------------------------------------------------------------------
 Center     Atomic                   Forces (Hartrees/Bohr)
 Number     Number              X              Y              Z
 -------------------------------------------------------------------
      1        6           0.000790417   -0.000143611    0.000064276
      2        6          -0.000228600    0.000338117    0.000079004
      3        6           0.000309609   -0.000502003    0.000161788
      4        7           0.000494948    0.000805854   -0.000002222
      5        7          -0.000144534   -0.000132161   -0.000035185
      6        7           0.000081859    0.000222445   -0.000408170
      7        7           0.000830326   -0.000418254   -0.000594298
      8        6          -0.001986278   -0.000246554    0.001384021
      9        8           0.001259020   -0.000096545   -0.000430514
     10        8          -0.000414477   -0.000065497   -0.000055637
     11        6          -0.001180486   -0.000016103   -0.000142383
     12        8           0.000208020    0.000241483    0.000050274
     13        1           0.000018267   -0.000037369   -0.000002364
     14        1          -0.000037882    0.000078962   -0.000014222
     15        1          -0.000000207   -0.000028764   -0.000054367
 -------------------------------------------------------------------
 Cartesian Forces:  Max     0.001986278 RMS     0.000537129

 GradGradGradGradGradGradGradGradGradGradGradGradGradGradGradGradGradGrad
 Berny optimization.
 Using GEDIIS/GDIIS optimizer.
 FormGI is forming the generalized inverse of G from B-inverse, IUseBI=4.
 Internal  Forces:  Max     0.001263065 RMS     0.000240695
 Search for a local minimum.
 Step number   3 out of a maximum of   87
 All quantities printed in internal units (Hartrees-Bohrs-Radians)
 Mixed Optimization -- En-DIIS/RFO-DIIS
 Swapping is turned off.
 Update second derivatives using D2CorX and points    1    2    3
 DE= -2.26D-05 DEPred=-2.52D-05 R= 8.98D-01
 TightC=F SS=  1.41D+00  RLast= 2.05D-02 DXNew= 5.0454D-01 6.1432D-02
 Trust test= 8.98D-01 RLast= 2.05D-02 DXMaxT set to 3.00D-01
 ITU=  1  1  0
     Eigenvalues ---    0.01632   0.01740   0.01801   0.01821   0.01889
     Eigenvalues ---    0.01990   0.02004   0.02014   0.02016   0.02099
     Eigenvalues ---    0.02193   0.03279   0.15757   0.16000   0.16019
     Eigenvalues ---    0.19831   0.23458   0.23617   0.24416   0.24999
     Eigenvalues ---    0.25000   0.25027   0.28605   0.32156   0.41141
     Eigenvalues ---    0.41870   0.43588   0.44756   0.45507   0.45641
     Eigenvalues ---    0.46268   0.47804   0.48812   0.49428   0.50631
     Eigenvalues ---    0.56470   0.76862   0.86016   0.90490
 En-DIIS/RFO-DIIS IScMMF=        0 using points:     3    2
 RFO step:  Lambda=-9.80755201D-06.
 DidBck=F Rises=F RFO-DIIS coefs:    0.90328    0.09672
 Iteration  1 RMS(Cart)=  0.00180724 RMS(Int)=  0.00001314
 Iteration  2 RMS(Cart)=  0.00000951 RMS(Int)=  0.00001005
 Iteration  3 RMS(Cart)=  0.00000000 RMS(Int)=  0.00001005
 Variable       Old X    -DE/DX   Delta X   Delta X   Delta X     New X
                                 (Linear)    (Quad)   (Total)
    R1        2.61596   0.00017   0.00008  -0.00052  -0.00044   2.61552
    R2        2.63094  -0.00019  -0.00011   0.00021   0.00010   2.63105
    R3        2.64371   0.00068  -0.00027   0.00326   0.00299   2.64670
    R4        2.59454   0.00018  -0.00005   0.00049   0.00044   2.59498
    R5        2.52044   0.00051  -0.00024   0.00250   0.00225   2.52269
    R6        2.59223   0.00060  -0.00007   0.00126   0.00120   2.59343
    R7        2.58453  -0.00001   0.00006  -0.00087  -0.00081   2.58372
    R8        2.32446   0.00040  -0.00010   0.00095   0.00085   2.32530
    R9        2.66631  -0.00041   0.00024  -0.00331  -0.00306   2.66325
   R10        1.91762  -0.00004   0.00000   0.00002   0.00002   1.91764
   R11        1.91626  -0.00007   0.00000  -0.00003  -0.00003   1.91623
   R12        2.60146   0.00010   0.00020  -0.00196  -0.00175   2.59971
   R13        1.90814  -0.00001   0.00001  -0.00002   0.00000   1.90813
   R14        2.60051  -0.00032   0.00021  -0.00268  -0.00246   2.59805
   R15        2.35916   0.00126  -0.00035   0.00396   0.00361   2.36277
   R16        2.34283   0.00022  -0.00002   0.00008   0.00006   2.34289
    A1        1.81460  -0.00001   0.00008  -0.00045  -0.00038   1.81422
    A2        2.13772  -0.00003   0.00013  -0.00123  -0.00110   2.13662
    A3        2.33086   0.00005  -0.00020   0.00168   0.00148   2.33234
    A4        2.10449   0.00000  -0.00004   0.00042   0.00038   2.10487
    A5        1.97875   0.00008   0.00021  -0.00125  -0.00106   1.97770
    A6        2.19994  -0.00007  -0.00017   0.00084   0.00068   2.20062
    A7        2.01408   0.00001   0.00002   0.00009   0.00011   2.01419
    A8        2.13221  -0.00011   0.00005  -0.00090  -0.00085   2.13136
    A9        2.13689   0.00010  -0.00007   0.00081   0.00075   2.13764
   A10        2.23781   0.00008  -0.00002   0.00025   0.00023   2.23804
   A11        2.01570  -0.00010   0.00007  -0.00091  -0.00084   2.01486
   A12        2.02967   0.00002  -0.00005   0.00066   0.00061   2.03028
   A13        2.11913   0.00000  -0.00002  -0.00005  -0.00007   2.11907
   A14        2.11215   0.00001   0.00000   0.00018   0.00018   2.11233
   A15        2.05190  -0.00001   0.00002  -0.00013  -0.00011   2.05179
   A16        1.88259  -0.00011  -0.00023   0.00101   0.00078   1.88337
   A17        2.21942   0.00004   0.00004   0.00002   0.00006   2.21948
[...]
 ! A10   A(3,4,11)             128.2337         -DE/DX =    0.0                 !
 ! A11   A(3,4,13)             115.4392         -DE/DX =    0.0                 !
 ! A12   A(11,4,13)            116.3271         -DE/DX =    0.0                 !
 ! A13   A(2,5,3)              121.4085         -DE/DX =    0.0                 !
 ! A14   A(2,5,14)             121.0284         -DE/DX =    0.0                 !
 ! A15   A(3,5,14)             117.5631         -DE/DX =    0.0                 !
 ! A16   A(1,6,8)              107.8318         -DE/DX =    0.0                 !
 ! A17   A(1,6,15)             127.1834         -DE/DX =    0.0                 !
 ! A18   A(8,6,15)             124.9848         -DE/DX =    0.0                 !
 ! A19   A(2,7,8)              104.8503         -DE/DX =    0.0                 !
 ! A20   A(6,8,7)              109.9726         -DE/DX =   -0.0001              !
 ! A21   A(6,8,9)              124.0713         -DE/DX =    0.0                 !
 ! A22   A(7,8,9)              125.9561         -DE/DX =    0.0001              !
 ! A23   A(1,11,4)             111.912          -DE/DX =    0.0                 !
 ! A24   A(1,11,12)            128.7515         -DE/DX =    0.0001              !
 ! A25   A(4,11,12)            119.3365         -DE/DX =   -0.0001              !
 ! D1    D(6,1,2,5)           -180.0051         -DE/DX =    0.0                 !
 ! D2    D(6,1,2,7)             -0.0026         -DE/DX =    0.0                 !
 ! D3    D(11,1,2,5)            -0.0008         -DE/DX =    0.0                 !
 ! D4    D(11,1,2,7)           180.0017         -DE/DX =    0.0                 !
 ! D5    D(2,1,6,8)              0.0165         -DE/DX =    0.0                 !
 ! D6    D(2,1,6,15)          -179.986          -DE/DX =    0.0                 !
 ! D7    D(11,1,6,8)           180.0115         -DE/DX =    0.0                 !
 ! D8    D(11,1,6,15)            0.009          -DE/DX =    0.0                 !
 ! D9    D(2,1,11,4)             0.0012         -DE/DX =    0.0                 !
 ! D10   D(2,1,11,12)         -180.007          -DE/DX =    0.0                 !
 ! D11   D(6,1,11,4)           180.0069         -DE/DX =    0.0                 !
 ! D12   D(6,1,11,12)           -0.0012         -DE/DX =    0.0                 !
 ! D13   D(1,2,5,3)              0.0009         -DE/DX =    0.0                 !
 ! D14   D(1,2,5,14)           180.0012         -DE/DX =    0.0                 !
 ! D15   D(7,2,5,3)           -180.002          -DE/DX =    0.0                 !
 ! D16   D(7,2,5,14)            -0.0017         -DE/DX =    0.0                 !
 ! D17   D(1,2,7,8)             -0.0122         -DE/DX =    0.0                 !
 ! D18   D(5,2,7,8)            179.9905         -DE/DX =    0.0                 !
 ! D19   D(5,3,4,11)             0.002          -DE/DX =    0.0                 !
 ! D20   D(5,3,4,13)           180.002          -DE/DX =    0.0                 !
 ! D21   D(10,3,4,11)         -179.9993         -DE/DX =    0.0                 !
 ! D22   D(10,3,4,13)            0.0007         -DE/DX =    0.0                 !
 ! D23   D(4,3,5,2)             -0.0014         -DE/DX =    0.0                 !
 ! D24   D(4,3,5,14)           179.9983         -DE/DX =    0.0                 !
 ! D25   D(10,3,5,2)           179.9999         -DE/DX =    0.0                 !
 ! D26   D(10,3,5,14)           -0.0004         -DE/DX =    0.0                 !
 ! D27   D(3,4,11,1)            -0.0019         -DE/DX =    0.0                 !
 ! D28   D(3,4,11,12)          180.0054         -DE/DX =    0.0                 !
 ! D29   D(13,4,11,1)         -180.0019         -DE/DX =    0.0                 !
 ! D30   D(13,4,11,12)           0.0054         -DE/DX =    0.0                 !
 ! D31   D(1,6,8,7)             -0.025          -DE/DX =    0.0                 !
 ! D32   D(1,6,8,9)           -179.98           -DE/DX =    0.0                 !
 ! D33   D(15,6,8,7)           179.9774         -DE/DX =    0.0                 !
 ! D34   D(15,6,8,9)             0.0224         -DE/DX =    0.0                 !
 ! D35   D(2,7,8,6)              0.0227         -DE/DX =    0.0                 !
 ! D36   D(2,7,8,9)            179.9766         -DE/DX =    0.0                 !
 --------------------------------------------------------------------------------
 GradGradGradGradGradGradGradGradGradGradGradGradGradGradGradGradGradGrad

 1\1\GINC-LEGACY-N18\Freq\RM062X\6-311+G(d,p)\C5H3N4O3(1-)\CAM298\03-Ma
 y-2021\0\\#N Geom=AllCheck Guess=TCheck SCRF=Check GenChk RM062X/6-311
 +G(d,p) Freq\\Title Card Required\\-1,1\C,0.3758843783,0.6035270817,-0
 .0000328785\C,0.3179962495,-0.7795587302,-0.0000172969\C,-2.0716587334
 ,-0.7365606616,-0.000014962\N,-1.9522984588,0.6308462157,-0.0000193532
 \N,-0.892265454,-1.4283840467,0.0000004204\N,1.7395255398,0.8827742619
 ,0.0000727226\N,1.5199395493,-1.3598826134,0.0000324789\C,2.4152272034
 ,-0.3161653831,-0.0002324526\O,3.6610887399,-0.4178592604,0.0001304775
 \O,-3.1667050444,-1.297522875,-0.0000009061\C,-0.7734298298,1.40360046
 82,-0.0000487684\O,-0.8579409078,2.6405428211,0.0000541768\H,-2.827286
 6221,1.1447701905,0.0000010808\H,-0.94237285,-2.4411341049,0.000030089
 3\H,2.1759892402,1.7933226363,0.0002911713\\Version=EM64L-G09RevD.01\S
 tate=1-A\HF=-637.2205467\RMSD=3.564e-09\RMSF=1.167e-04\ZeroPoint=0.095
 6087\Thermal=0.1047961\Dipole=-2.4713994,0.3123783,-0.0002771\DipoleDe
 riv=-0.522583,1.3979032,0.0000987,1.6251465,-1.903138,-0.0000249,-0.00
 01391,0.0001259,-0.1342736,2.3859649,-0.1938782,0.0000013,-1.0227788,2
 .0603445,0.,-0.0000862,0.000061,0.2464667,3.5258705,0.9065216,0.000005
 7,0.9291808,2.0883954,-0.000015,0.0000158,-0.0000322,0.5785606,-1.5056
 625,-0.3263928,-0.0000176,-1.0219318,-1.6580066,-0.0000027,0.0000886,-
 0.000002,-0.4793312,-1.8922343,-0.6497594,-0.0000141,0.3614468,-0.9312
 755,0.0000008,0.0000642,-0.000057,-0.4316473,-1.0938538,-0.1818573,-0.
 0000833,0.3887854,-1.2244551,0.0000593,0.0002111,-0.0002404,-0.4019678
 ,-2.744986,0.6094153,-0.0000263,-0.4785986,-0.8520876,-0.0000829,0.000
 2415,0.0000318,-0.5196326,4.4823261,-0.7729878,0.0000044,0.209696,1.31
 22142,0.0000425,0.0007013,-0.0001086,0.4132705,-3.5643585,0.7462623,0.
 0000245,0.1293579,-0.8426991,-0.0000119,-0.0010571,0.0002513,-0.714524
 2,-2.6027306,-0.8801993,0.0000023,-0.9397958,-1.2327768,0.0000023,0.00
 00205,0.0000275,-0.6401798,2.7153695,-0.9228496,-0.0000212,-1.015715,4
 .3382472,0.0000844,-0.0001989,0.0002395,0.4625667,-1.0418745,0.3042369
 ,0.0000043,0.9160023,-3.3598658,-0.0000517,0.0001286,-0.000242,-0.6344
 973,0.3713711,-0.1037621,0.0000015,-0.1177974,0.3066213,0.000002,-0.00
 0018,-0.0000007,0.4003212,0.2311001,-0.0019404,-0.0000013,-0.021375,0.
 4883866,-0.000002,0.0000101,-0.0000087,0.4132756,0.256281,0.0692876,0.
 0000209,0.0583766,0.410095,-0.0000002,0.0000177,-0.0000455,0.4415925\P
 olar=200.062707,-19.154284,167.8393982,0.0009478,0.0008243,70.8170112\
 PG=C01 [X(C5H3N4O3)]\NImag=0\\0.79857046,-0.07829076,0.74162210,0.0000
 0120,0.00001835,0.07226236,-0.08321132,-0.02220704,0.00000053,0.807056
 48,-0.06669634,-0.32886738,-0.00000102,0.05504155,0.75385641,-0.000003
 09,0.00000274,-0.06166995,-0.00000850,-0.00001653,0.15108139,-0.017305
 34,0.01567386,-0.00000232,-0.07289149,-0.01795173,0.00000064,0.8340112
 1,0.02333661,-0.03230161,0.00000237,0.01171973,0.06479289,0.00000004,0
 .09346596,0.67874022,0.00000055,-0.00000104,0.00510575,0.00000048,0.00
 000044,-0.00703022,-0.00000429,-0.00000760,0.20625539,-0.06119942,-0.0
 0090131,-0.00000088,0.00734575,-0.01429055,0.,-0.14386769,0.03462340,0
 .00000233,0.78032937,-0.00430943,0.03957556,-0.00000172,-0.01580628,-0
 .03259106,0.,0.00897961,-0.25652885,0.00000166,-0.08241785,0.72967578,
 -0.00000160,0.00000017,0.00489024,0.00000080,0.00000091,0.00250743,0.0
 0000279,-0.00000200,-0.05188464,-0.00001196,0.00000483,0.04362479,0.02
 469647,-0.04259533,0.00000463,-0.25775201,-0.06722884,0.00000197,-0.21
 387229,0.06378266,-0.00000275,0.00704793,0.04278327,-0.00000131,0.7227
 8022,-0.03685086,-0.02227721,-0.00000011,-0.09428947,-0.20665460,0.000
 00654,0.07251925,-0.20724105,0.00000329,0.03701900,-0.04743286,0.00000
 103,0.02600903,0.87580244,0.00000443,-0.00000171,0.00333077,0.00000187
 ,0.00000888,-0.03189596,-0.00000114,0.00000320,-0.05877926,0.00000027,
 0.00000010,0.00846170,-0.00000285,-0.00001973,0.05115471,-0.29568020,-
 0.06349677,-0.00001387,-0.03651077,-0.03078325,0.00000291,0.01622021,-
 0.00281392,0.00000010,0.00240334,0.00286648,0.00000116,-0.01494490,0.0
 0108365,-0.00000483,0.69511804,-0.03428327,-0.12372055,-0.00001867,-0.
 01864616,-0.05925702,-0.00000470,0.00515989,-0.00701924,0.00000052,0.0
 0638884,0.00023167,-0.00000089,-0.00738937,-0.00722306,0.00000230,0.15
 176813,0.86750391,-0.00001076,-0.00002361,-0.02325509,0.00000335,-0.00
 000463,0.01100605,0.00000029,-0.00000179,-0.00134976,0.00000144,0.0000
 0062,0.00560428,-0.00000185,-0.00000011,0.00292223,0.00004437,0.000146
 84,0.04012749,-0.05873156,0.08206175,-0.00000551,-0.28594638,0.1099914
 6,-0.00000454,0.01182460,0.00068710,0.00000089,-0.01707822,-0.00393655
 ,0.00000054,-0.05387834,0.01121189,0.00000242,0.01270680,-0.04296567,0
 .00000190,0.56154425,0.01622079,-0.03919016,-0.00000104,0.10401593,-0.
 18738118,0.00001401,-0.00096861,-0.00489521,0.00000004,-0.00107641,0.0
 0049235,0.00000030,-0.01986677,0.02700708,-0.00000259,0.00372151,-0.07
 478754,0.00000365,-0.04093436,0.48829448,0.00000173,-0.00000282,0.0218
 9958,-0.00000142,0.00001666,-0.06403224,0.00000021,0.00000008,0.001268
 64,0.00000088,0.00000042,-0.00119255,0.00000294,-0.00000299,-0.0006124
 7,0.00000541,-0.00000848,0.01434672,0.00000492,-0.00003356,0.08587188,
 -0.02134251,-0.00270312,0.00002034,-0.10457341,0.00509568,0.00001336,-
 0.00870825,-0.00911677,-0.00000033,0.01184488,0.00753244,-0.00000203,0
 .00476750,0.00292880,0.00000057,-0.15594881,0.02639814,-0.00000820,-0.
 11744148,-0.03498449,-0.00000787,0.86181144,0.06706908,-0.02034041,0.0
 0000464,-0.05711393,0.05273806,-0.00000139,0.00365905,0.00020263,-0.00
 000063,0.00656977,0.00218080,0.00000058,0.00796104,-0.00370300,-0.0000
 0355,0.04873484,-0.22869951,-0.00004017,-0.06172797,-0.21640289,0.0000
 4040,-0.02985723,0.53579571,0.00002357,0.00000563,0.00571239,-0.000000
 61,-0.00000296,-0.00041255,-0.00000047,-0.00000436,0.00200440,0.000002
 90,0.00000365,0.00137656,-0.00000478,-0.00000046,0.00442940,-0.0000100
 9,-0.00003741,-0.06247078,0.00000383,0.00002221,-0.08328133,0.00008703
 ,-0.00000513,0.21131166,-0.03126438,0.02552914,-0.00000636,0.01394001,
 -0.01993973,-0.00000246,0.00584215,0.00942953,0.00000023,-0.01167700,-
 0.00721941,0.00000166,-0.00339441,0.00251849,0.00000034,-0.04586327,0.
 05205931,-0.00000095,-0.08856353,-0.03282174,-0.00000410,-0.46676114,0
 .03622836,-0.00009197,0.61285275,-0.00361429,-0.00434455,-0.00000123,0
 .00286456,-0.01037809,0.00000098,-0.00060281,-0.00155694,0.00000019,0.
 00047489,0.00002297,-0.00000023,-0.00212007,0.00191738,0.00000081,0.06
 023953,-0.00372060,0.00000917,-0.04724185,0.01577363,-0.00000767,0.034
 59385,-0.10014387,0.00000977,-0.04675688,0.09627875,-0.00001740,0.0000
 0387,0.00317328,0.00000265,-0.00000094,0.00487910,0.00000164,0.0000042
 6,-0.00004514,-0.00000413,-0.00000322,-0.00096357,0.00000113,0.0000008
 2,0.00037631,0.00001101,0.00000698,0.01596188,-0.00000409,-0.00000540,
 0.01387404,-0.00010340,0.00001211,-0.06837061,0.00010536,-0.00001157,0
 .03093026,0.00603169,-0.00108178,0.00000126,0.01313971,0.01087638,-0.0
 0000108,-0.45371972,-0.18200834,0.00000443,-0.01707252,-0.06281277,0.0
 0000059,-0.11087019,-0.00409640,-0.00000007,-0.01272214,-0.00077601,0.
 00000040,-0.00718304,-0.00228341,0.00000081,0.00758574,-0.00404520,0.0
 0000119,-0.00734300,0.00072154,-0.00000244,0.57737981,-0.00250522,0.00
 599762,0.,0.00144767,-0.01021532,-0.00000044,-0.18286400,-0.19060255,0
 .00000313,-0.07709927,-0.06908443,0.00000194,0.00902392,0.03335347,-0.
 00000045,-0.00481154,0.00165213,0.00000058,-0.00173693,0.00077427,0.00
 000007,0.00454716,-0.00242107,0.00000147,-0.00448286,0.00076878,-0.000
 00178,0.24405347,0.22568908,-0.00000009,0.00000029,-0.00136646,-0.0000
 0048,-0.00000033,0.00592303,0.00000387,0.00000278,-0.07965761,0.000000
 78,0.00000129,0.01897998,0.00000076,-0.00000063,0.01874320,0.00000016,
 -0.00000014,-0.00020519,-0.00000003,0.00000021,0.00056828,-0.00000026,
 0.00000013,-0.00034854,0.00000014,-0.00000007,-0.00011322,-0.00000477,
 -0.00000366,0.03781418,-0.25964325,0.06504466,0.00000063,0.00772294,0.
 07956830,0.00000105,0.02909478,-0.09059727,-0.00000063,-0.21332929,0.0
 1031150,0.00000399,-0.04410214,0.00771069,-0.00000250,-0.02837923,0.01
 807628,-0.00000033,0.04402018,-0.00299845,-0.00000293,-0.03469049,-0.0
 2792796,-0.00001244,0.02841345,0.00246640,0.00001218,0.00731366,0.0242
 7522,-0.00000026,0.58778803,0.09331697,-0.12577690,-0.00000358,0.03902
 865,-0.07593167,-0.00000162,-0.04135442,-0.02761194,0.00000127,-0.0316
 0553,-0.12568113,0.00000078,0.02232488,0.01881562,0.00000233,-0.016964
 10,0.02102453,0.00000527,-0.03227342,-0.00779969,0.00000160,0.03101187
 ,0.00328317,0.00001082,-0.03357042,0.00318866,-0.00001304,0.01555738,0
 .00826811,-0.00000047,-0.10117126,0.80286944,0.00000398,0.00000416,-0.
 04555045,0.00000087,-0.00000670,-0.01398300,-0.00000208,0.00000236,-0.
 01521230,0.00000259,-0.00000019,-0.04209272,0.00000264,0.00000068,0.00
 213289,-0.00000646,0.00000548,-0.00827350,-0.00000516,-0.00000145,0.01
 044936,0.00000998,-0.00000138,-0.00330987,-0.00000656,-0.00000003,0.00
 237603,0.00000029,-0.00000043,0.00689478,-0.00000136,0.00002784,0.1790
 5550,0.00622599,0.05258752,0.00000275,-0.00613768,-0.01272794,0.000000
 08,-0.00744599,0.01333375,-0.00000026,0.00668830,-0.06420491,-0.000002
 23,0.00720252,-0.00134036,0.00000042,0.00580830,-0.00256638,0.00000033
 ,-0.00806145,0.00322032,0.00000043,0.00645628,0.00446343,0.00000138,-0
 .00497037,-0.00028302,-0.00000188,-0.00143235,-0.00488351,0.00000015,-
 0.09950498,0.04314238,0.00000130,0.08891277,0.03327213,-0.09880943,-0.
 00000198,-0.00233687,0.05164152,0.00000052,0.00954018,0.01300316,-0.00
 000117,-0.03904621,-0.08010764,-0.00000397,-0.01779083,-0.01572267,-0.
 00000107,0.00392435,-0.00073522,-0.00000181,0.02537036,-0.00071970,-0.
 00000139,-0.02516760,-0.00747132,-0.00000725,0.02319109,-0.00052212,0.
 00000873,-0.01079713,-0.00932866,0.00000059,0.03000507,-0.51031818,-0.
 00003029,-0.03305666,0.65817213,-0.00000053,-0.00000785,0.01969754,-0.
 00000063,0.00000528,0.00919473,0.00000097,-0.00000022,0.00610929,-0.00
 000110,-0.00000239,0.01374643,-0.00000180,-0.00000127,-0.00095829,0.00
 000233,-0.00000042,-0.00232296,0.00000315,0.00000018,-0.00348290,-0.00
 000372,-0.00000028,0.00059630,0.00000294,-0.00000020,-0.00004769,-0.00
 000052,-0.00000034,-0.00093477,0.00000141,-0.00003127,-0.07038162,-0.0
 0000252,0.00003900,0.03266918,-0.00196334,-0.00400753,0.00000023,-0.00
 153635,-0.00060668,-0.00000004,0.01063496,0.00305339,-0.00000055,-0.34
 592247,0.16432765,0.00000764,0.00245491,-0.00418698,0.00000007,-0.0000
 7597,0.00105210,0.00000023,0.00131500,0.00025023,-0.00000005,-0.000798
 47,-0.00105729,-0.00000035,0.00046299,0.00021648,0.00000023,-0.0019960
 3,-0.00250394,0.00000004,-0.02268872,0.01315286,0.00000017,0.00507136,
 0.00197606,0.00000012,0.35435448,-0.00415213,-0.00147319,-0.00000008,-
 0.00069698,-0.00191697,-0.00000013,0.03111913,-0.01593722,-0.00000042,
 0.15977625,-0.16321698,-0.00000349,-0.00156206,-0.00575693,0.00000017,
 -0.00073986,0.00123981,0.00000022,-0.00103219,0.00023591,0.00000005,0.
 00103461,-0.00013829,0.00000017,-0.00117614,0.00022568,-0.00000039,0.0
 0040577,0.00420401,0.,-0.01497364,0.01741322,0.00000031,0.00250891,-0.
 00023790,-0.00000009,-0.17168045,0.16532095,-0.00000054,0.00000052,0.0
 0186913,0.,-0.00000038,-0.00170534,-0.00000010,0.00000058,-0.00316672,
 0.00000682,-0.00000448,-0.00661355,0.00000024,0.00000016,0.00368754,0.
 00000015,-0.00000024,0.00122541,-0.00000030,-0.00000011,0.00046630,-0.
 00000013,0.00000034,-0.00005225,-0.00000004,0.00000006,-0.00012501,-0.
 00000020,-0.00000015,-0.00321327,0.00000169,-0.00000021,-0.00194260,0.
 00000020,0.00000034,-0.00308972,-0.00000783,0.00000359,0.01139620,-0.0
 0369654,-0.00045415,-0.00000003,0.00667673,-0.03175305,0.00000114,0.00
 987300,0.03089700,-0.00000014,-0.00559138,0.00399449,-0.00000011,-0.07
 095398,-0.01856351,0.00000078,-0.00076712,-0.00157009,-0.00000016,0.00
 352051,0.00154093,-0.00000039,-0.00018757,-0.00078535,0.00000013,0.000
 08996,0.00018796,0.00000002,0.00103272,-0.00239314,0.,-0.00285153,0.00
 010861,0.00000008,0.00065404,-0.00041251,-0.00000006,0.00070099,0.0011
 5993,-0.00000001,0.06188211,-0.00148119,0.00305252,0.00000006,-0.00574
 508,-0.00922898,0.,0.00542662,-0.01315158,0.00000027,0.00135846,0.0026
 3788,0.00000014,-0.01486834,-0.44183484,0.00001171,0.00114051,0.000671
 58,0.00000022,0.00124388,0.00111268,-0.00000033,-0.00097744,-0.0007843
 9,0.00000003,0.00074170,0.00013436,0.00000014,-0.00498653,0.00045906,0
 .00000002,0.00049914,-0.00298227,-0.00000027,-0.00016406,0.00247148,0.
 00000016,0.00000312,-0.00004844,0.00000001,0.01779617,0.45750364,0.000
 00054,-0.00000015,0.00258528,-0.00000043,0.00000056,-0.00406369,-0.000
 00023,0.00000054,-0.00331394,-0.00000027,-0.00000042,0.00377916,0.0000
 0167,0.00001206,-0.00461598,-0.00000057,0.00000010,0.00080945,0.000000
 35,-0.00000037,-0.00136921,-0.00000015,-0.00000004,-0.00087750,-0.0000
 0002,-0.00000007,0.00009609,0.00000029,0.00000008,-0.00312500,0.000000
 13,0.00000044,-0.00073058,-0.00000005,-0.00000036,-0.00031996,0.000000
 06,0.,0.00119871,-0.00000139,-0.00001223,0.00949365,-0.00148676,-0.025
 15914,-0.00000259,-0.00732222,0.00140473,-0.00000143,0.00030986,0.0002
 0717,-0.00000005,0.00007844,-0.00008826,0.00000006,0.00081872,-0.00167
 321,0.00000023,-0.14136428,-0.15270575,-0.00003007,0.00195266,0.006964
 52,-0.00000056,0.01798630,0.00782934,0.00000070,-0.00176420,-0.0011462
 8,-0.00000087,-0.00014435,-0.00006701,0.,0.00083660,-0.00070444,-0.000
 00028,0.00053328,0.00132856,-0.00000003,-0.00001333,0.00000883,0.00000
 004,-0.00038193,0.00001304,0.00000006,0.12996122,-0.00103207,0.0068535
 7,0.00000400,0.00272372,-0.00060661,-0.00000004,-0.00180200,0.00010728
 ,0.00000007,0.00022649,-0.00017409,-0.00000010,0.00153680,0.00095021,-
 0.00000041,-0.15386955,-0.38716089,-0.00009445,0.00128249,-0.00251402,
 -0.00000205,-0.01033590,-0.01409562,0.00000385,-0.00373043,0.00235596,
 -0.00000058,0.00127301,0.00048550,-0.00000001,-0.00028868,0.00123903,-
 0.00000009,-0.00002947,-0.00131545,-0.00000028,0.00001096,0.00008632,-
 0.00000002,0.00024671,-0.00001271,-0.00000015,0.16378791,0.39380152,-0
 .00000199,0.00000145,-0.00868436,0.00000154,0.00000075,0.00020123,0.00
 000021,-0.00000025,-0.00030388,0.00000033,-0.00000015,-0.00022353,-0.0
 0000065,0.00000072,0.00162322,-0.00003179,-0.00009125,0.00587375,0.000
 00162,0.00000393,0.00522591,-0.00000517,-0.00000561,-0.00630728,0.0000
 0180,0.00000010,-0.00200176,-0.00000017,-0.00000004,0.00004059,-0.0000
 0062,-0.00000016,0.00056807,-0.00000008,0.00000012,-0.00047555,0.00000
 003,0.00000007,0.00006519,0.00000015,0.00000007,0.00045351,0.00003479,
 0.00009027,0.00394489\\0.00010160,0.00020542,-0.00000479,-0.00001195,-
 0.00019793,-0.00000003,0.00016383,0.00025147,-0.00000324,0.00002865,-0
 .00017262,0.00000465,0.00007612,0.00000242,0.00000105,0.00006680,-0.00
 027475,0.00004239,0.00008610,0.00004865,0.00004947,-0.00026330,0.00030
 640,-0.00012657,0.00010573,-0.00001449,0.00003885,-0.00012443,-0.00014
 867,0.00000063,-0.00025813,-0.00001994,-0.00001659,0.00001618,-0.00000
 201,0.00000652,-0.00000300,-0.00000663,0.00000046,0.00002404,-0.000018
 53,0.00000118,-0.00000825,0.00004120,0.00000603\\\@


 OPTIMIST - A PESSIMIST WHO LACKS EXPERIENCE
 Job cpu time:       0 days  0 hours 40 minutes  0.5 seconds.
 File lengths (MBytes):  RWF=    159 Int=      0 D2E=      0 Chk=     11 Scr=      1
 Normal termination of Gaussian 09 at Mon May  3 12:21:32 2021.
