 Entering Gaussian System, Link 0=g09
 Initial command:
 /ihome/crc/build/g09/g09-D.01/TAR/g09/l1.exe "/scratch/slurm-3049799/Gau-8882.inp" -scrdir="/scratch/slurm-3049799/"
 Entering Link 1 = /ihome/crc/build/g09/g09-D.01/TAR/g09/l1.exe PID=      8883.
  
 Copyright (c) 1988,1990,1992,1993,1995,1998,2003,2009,2013,
            Gaussian, Inc.  All Rights Reserved.
  
 This is part of the Gaussian(R) 09 program.  It is based on
 the Gaussian(R) 03 system (copyright 2003, Gaussian, Inc.),
 the Gaussian(R) 98 system (copyright 1998, Gaussian, Inc.),
 the Gaussian(R) 94 system (copyright 1995, Gaussian, Inc.),
 the Gaussian 92(TM) system (copyright 1992, Gaussian, Inc.),
 the Gaussian 90(TM) system (copyright 1990, Gaussian, Inc.),
 the Gaussian 88(TM) system (copyright 1988, Gaussian, Inc.),
 the Gaussian 86(TM) system (copyright 1986, Carnegie Mellon
 University), and the Gaussian 82(TM) system (copyright 1983,
 Carnegie Mellon University). Gaussian is a federally registered
 trademark of Gaussian, Inc.
  
 This software contains proprietary and confidential information,
 including trade secrets, belonging to Gaussian, Inc.
  
 This software is provided under written license and may be
 used, copied, transmitted, or stored only in accord with that
 written license.
  
 The following legend is applicable only to US Government
 contracts under FAR:
  
                    RESTRICTED RIGHTS LEGEND
  
 Use, reproduction and disclosure by the US Government is
 subject to restrictions as set forth in subparagraphs (a)
 and (c) of the Commercial Computer Software - Restricted
 Rights clause in FAR 52.227-19.
  
 Gaussian, Inc.
 340 Quinnipiac St., Bldg. 40, Wallingford CT 06492
  
  
 ---------------------------------------------------------------
 Warning -- This program may not be used in any manner that
 competes with the business of Gaussian, Inc. or will provide
 assistance to any competitor of Gaussian, Inc.  The licensee
 of this program is prohibited from giving any competitor of
 Gaussian, Inc. access to this program.  By using this program,
 the user acknowledges that Gaussian, Inc. is engaged in the
 business of creating and licensing software in the field of
 computational chemistry and represents and warrants to the
 licensee that it is not a competitor of Gaussian, Inc. and that
 it will not use this program in any manner prohibited above.
 ---------------------------------------------------------------
  

 Cite this work as:
 Gaussian 09, Revision D.01,
 M. J. Frisch, G. W. Trucks, H. B. Schlegel, G. E. Scuseria, 
 M. A. Robb, J. R. Cheeseman, G. Scalmani, V. Barone, B. Mennucci, 
 G. A. Petersson, H. Nakatsuji, M. Caricato, X. Li, H. P. Hratchian, 
 A. F. Izmaylov, J. Bloino, G. Zheng, J. L. Sonnenberg, M. Hada, 
 M. Ehara, K. Toyota, R. Fukuda, J. Hasegawa, M. Ishida, T. Nakajima, 
 Y. Honda, O. Kitao, H. Nakai, T. Vreven, J. A. Montgomery, Jr., 
 J. E. Peralta, F. Ogliaro, M. Bearpark, J. J. Heyd, E. Brothers, 
 K. N. Kudin, V. N. Staroverov, T. Keith, R. Kobayashi, J. Normand, 
 K. Raghavachari, A. Rendell, J. C. Burant, S. S. Iyengar, J. Tomasi, 
 M. Cossi, N. Rega, J. M. Millam, M. Klene, J. E. Knox, J. B. Cross, 
 V. Bakken, C. Adamo, J. Jaramillo, R. Gomperts, R. E. Stratmann, 
 O. Yazyev, A. J. Austin, R. Cammi, C. Pomelli, J. W. Ochterski, 
 R. L. Martin, K. Morokuma, V. G. Zakrzewski, G. A. Voth, 
 P. Salvador, J. J. Dannenberg, S. Dapprich, A. D. Daniels, 
 O. Farkas, J. B. Foresman, J. V. Ortiz, J. Cioslowski, 
 and D. J. Fox, Gaussian, Inc., Wallingford CT, 2013.
 
 ******************************************
 Gaussian 09:  EM64L-G09RevD.01 24-Apr-2013
                 3-May-2021 
 ******************************************
 %nprocshared=16
 Will use up to   16 processors via shared memory.
 %mem=32GB
 ----------------------------------------------------------------------
 # opt freq=noraman m062x 6-311+g(d,p) scrf=(smd,solvent=water) geom=co
 nnectivity temperature=298.15
 ----------------------------------------------------------------------
 1/14=-1,18=20,19=15,26=3,38=1,57=2,112=298150/1,3;
 2/9=110,12=2,17=6,18=5,40=1/2;
 3/5=4,6=6,7=111,11=2,16=1,25=1,30=1,70=32201,71=1,72=1,74=-55/1,2,3;
 4//1;
 5/5=2,38=5,53=1/2;
 6/7=2,8=2,9=2,10=2,28=1/1;
 7//1,2,3,16;
 1/14=-1,18=20,19=15,26=3/3(2);
 2/9=110/2;
 99//99;
 2/9=110/2;
 3/5=4,6=6,7=111,11=2,16=1,25=1,30=1,70=32205,71=1,72=1,74=-55/1,2,3;
 4/5=5,16=3,69=1/1;
 5/5=2,38=5,53=1/2;
 7//1,2,3,16;
 1/14=-1,18=20,19=15,26=3/3(-5);
 2/9=110/2;
 6/7=2,8=2,9=2,10=2,19=2,28=1/1;
 99/9=1/99;
 -------------------
 Title Card Required
 -------------------
 Symbolic Z-matrix:
 Charge = -1 Multiplicity = 1
 C                     0.32053   0.59716  -0.00003 
 C                     0.21214  -0.78523  -0.00005 
 C                    -2.05149  -0.81863   0.00001 
 H                    -2.87331   1.06962   0.00005 
 H                     2.09138   1.8392   -0.00006 
 H                     1.77529  -2.24693   0.00002 
 N                    -1.98439   0.58419   0.00001 
 N                    -0.89572  -1.52928  -0.00004 
 N                     1.68812   0.91435   0.00001 
 N                     1.50672  -1.2732    0.00001 
 C                     2.43199  -0.23284   0.00003 
 O                     3.6609   -0.34521   0.00002 
 O                    -3.18348  -1.34755   0.00003 
 C                    -0.8401    1.39185  -0.00005 
 O                    -0.9318    2.63675   0.00003 
 

 GradGradGradGradGradGradGradGradGradGradGradGradGradGradGradGradGradGrad
 Berny optimization.
 Initialization pass.
                           ----------------------------
                           !    Initial Parameters    !
                           ! (Angstroms and Degrees)  !
 --------------------------                            --------------------------
 ! Name  Definition              Value          Derivative Info.                !
 --------------------------------------------------------------------------------
 ! R1    R(1,2)                  1.3866         estimate D2E/DX2                !
 ! R2    R(1,9)                  1.4039         estimate D2E/DX2                !
 ! R3    R(1,14)                 1.4066         estimate D2E/DX2                !
 ! R4    R(2,8)                  1.3345         estimate D2E/DX2                !
 ! R5    R(2,10)                 1.3835         estimate D2E/DX2                !
 ! R6    R(3,7)                  1.4044         estimate D2E/DX2                !
 ! R7    R(3,8)                  1.3568         estimate D2E/DX2                !
 ! R8    R(3,13)                 1.2495         estimate D2E/DX2                !
 ! R9    R(4,7)                  1.0128         estimate D2E/DX2                !
 ! R10   R(5,9)                  1.0089         estimate D2E/DX2                !
 ! R11   R(6,10)                 1.0101         estimate D2E/DX2                !
 ! R12   R(7,14)                 1.4006         estimate D2E/DX2                !
 ! R13   R(9,11)                 1.3673         estimate D2E/DX2                !
 ! R14   R(10,11)                1.3923         estimate D2E/DX2                !
 ! R15   R(11,12)                1.234          estimate D2E/DX2                !
 ! R16   R(14,15)                1.2483         estimate D2E/DX2                !
 ! A1    A(2,1,9)              107.5414         estimate D2E/DX2                !
 ! A2    A(2,1,14)             119.9166         estimate D2E/DX2                !
 ! A3    A(9,1,14)             132.542          estimate D2E/DX2                !
 ! A4    A(1,2,8)              128.3688         estimate D2E/DX2                !
 ! A5    A(1,2,10)             106.1696         estimate D2E/DX2                !
 ! A6    A(8,2,10)             125.4615         estimate D2E/DX2                !
 ! A7    A(7,3,8)              118.8473         estimate D2E/DX2                !
 ! A8    A(7,3,13)             117.7829         estimate D2E/DX2                !
 ! A9    A(8,3,13)             123.3698         estimate D2E/DX2                !
 ! A10   A(3,7,4)              115.9001         estimate D2E/DX2                !
 ! A11   A(3,7,14)             127.9539         estimate D2E/DX2                !
 ! A12   A(4,7,14)             116.1459         estimate D2E/DX2                !
 ! A13   A(2,8,3)              114.5286         estimate D2E/DX2                !
 ! A14   A(1,9,5)              126.6163         estimate D2E/DX2                !
 ! A15   A(1,9,11)             109.9021         estimate D2E/DX2                !
 ! A16   A(5,9,11)             123.4816         estimate D2E/DX2                !
 ! A17   A(2,10,6)             126.0723         estimate D2E/DX2                !
 ! A18   A(2,10,11)            110.9959         estimate D2E/DX2                !
 ! A19   A(6,10,11)            122.9318         estimate D2E/DX2                !
 ! A20   A(9,11,10)            105.391          estimate D2E/DX2                !
 ! A21   A(9,11,12)            128.1848         estimate D2E/DX2                !
 ! A22   A(10,11,12)           126.4242         estimate D2E/DX2                !
 ! A23   A(1,14,7)             110.3848         estimate D2E/DX2                !
 ! A24   A(1,14,15)            128.6126         estimate D2E/DX2                !
 ! A25   A(7,14,15)            121.0026         estimate D2E/DX2                !
 ! D1    D(9,1,2,8)            179.9974         estimate D2E/DX2                !
 ! D2    D(9,1,2,10)             0.0015         estimate D2E/DX2                !
 ! D3    D(14,1,2,8)            -0.0026         estimate D2E/DX2                !
 ! D4    D(14,1,2,10)         -179.9985         estimate D2E/DX2                !
 ! D5    D(2,1,9,5)            179.9941         estimate D2E/DX2                !
 ! D6    D(2,1,9,11)            -0.0007         estimate D2E/DX2                !
 ! D7    D(14,1,9,5)            -0.0059         estimate D2E/DX2                !
 ! D8    D(14,1,9,11)          179.9994         estimate D2E/DX2                !
 ! D9    D(2,1,14,7)             0.0041         estimate D2E/DX2                !
 ! D10   D(2,1,14,15)          179.996          estimate D2E/DX2                !
 ! D11   D(9,1,14,7)          -179.996          estimate D2E/DX2                !
 ! D12   D(9,1,14,15)           -0.004          estimate D2E/DX2                !
 ! D13   D(1,2,8,3)             -0.0005         estimate D2E/DX2                !
 ! D14   D(10,2,8,3)           179.9947         estimate D2E/DX2                !
 ! D15   D(1,2,10,6)          -179.9998         estimate D2E/DX2                !
 ! D16   D(1,2,10,11)           -0.0019         estimate D2E/DX2                !
 ! D17   D(8,2,10,6)             0.0041         estimate D2E/DX2                !
 ! D18   D(8,2,10,11)         -179.9979         estimate D2E/DX2                !
 ! D19   D(8,3,7,4)           -179.9994         estimate D2E/DX2                !
 ! D20   D(8,3,7,14)             0.0006         estimate D2E/DX2                !
 ! D21   D(13,3,7,4)             0.0017         estimate D2E/DX2                !
 ! D22   D(13,3,7,14)         -179.9983         estimate D2E/DX2                !
 ! D23   D(7,3,8,2)              0.0015         estimate D2E/DX2                !
 ! D24   D(13,3,8,2)          -179.9997         estimate D2E/DX2                !
 ! D25   D(3,7,14,1)            -0.0033         estimate D2E/DX2                !
 ! D26   D(3,7,14,15)         -179.996          estimate D2E/DX2                !
 ! D27   D(4,7,14,1)           179.9966         estimate D2E/DX2                !
 ! D28   D(4,7,14,15)            0.004          estimate D2E/DX2                !
 ! D29   D(1,9,11,10)           -0.0004         estimate D2E/DX2                !
 ! D30   D(1,9,11,12)          179.9977         estimate D2E/DX2                !
 ! D31   D(5,9,11,10)         -179.9954         estimate D2E/DX2                !
 ! D32   D(5,9,11,12)            0.0027         estimate D2E/DX2                !
 ! D33   D(2,10,11,9)            0.0014         estimate D2E/DX2                !
 ! D34   D(2,10,11,12)        -179.9967         estimate D2E/DX2                !
 ! D35   D(6,10,11,9)          179.9995         estimate D2E/DX2                !
 ! D36   D(6,10,11,12)           0.0013         estimate D2E/DX2                !
 --------------------------------------------------------------------------------
 Trust Radius=3.00D-01 FncErr=1.00D-07 GrdErr=1.00D-06
 Number of steps in this run=     87 maximum allowed number of steps=    100.
 GradGradGradGradGradGradGradGradGradGradGradGradGradGradGradGradGradGrad

                          Input orientation:                          
 ---------------------------------------------------------------------
 Center     Atomic      Atomic             Coordinates (Angstroms)
 Number     Number       Type             X           Y           Z
 ---------------------------------------------------------------------
      1          6           0        0.320529    0.597156   -0.000031
      2          6           0        0.212138   -0.785233   -0.000048
      3          6           0       -2.051488   -0.818632    0.000010
      4          1           0       -2.873305    1.069619    0.000050
      5          1           0        2.091375    1.839195   -0.000059
      6          1           0        1.775288   -2.246933    0.000016
      7          7           0       -1.984386    0.584185    0.000006
      8          7           0       -0.895717   -1.529275   -0.000035
      9          7           0        1.688123    0.914351    0.000005
     10          7           0        1.506723   -1.273201    0.000013
     11          6           0        2.431985   -0.232840    0.000026
     12          8           0        3.660902   -0.345212    0.000019
     13          8           0       -3.183477   -1.347553    0.000033
     14          6           0       -0.840098    1.391850   -0.000051
     15          8           0       -0.931795    2.636752    0.000028
 ---------------------------------------------------------------------
                    Distance matrix (angstroms):
                    1          2          3          4          5
     1  C    0.000000
     2  C    1.386632   0.000000
     3  C    2.762412   2.263872   0.000000
     4  H    3.228591   3.600060   2.059338   0.000000
     5  H    2.162997   3.227871   4.922129   5.023972   0.000000
     6  H    3.194553   2.140095   4.084637   5.710423   4.098335
     7  N    2.304951   2.588440   1.404421   1.012829   4.264608
     8  N    2.449686   1.334519   1.356768   3.265747   4.502145
     9  N    1.403897   2.251026   4.121641   4.564070   1.008934
    10  N    2.214789   1.383497   3.587130   4.967238   3.166832
    11  C    2.268731   2.287544   4.521580   5.462829   2.099844
    12  O    3.470756   3.476721   5.731974   6.685627   2.689805
    13  O    4.007487   3.441861   1.249462   2.436991   6.162745
    14  C    1.406625   2.418035   2.520654   2.058583   2.965409
    15  O    2.393380   3.608125   3.632271   2.495069   3.126604
                    6          7          8          9         10
     6  H    0.000000
     7  N    4.706419   0.000000
     8  N    2.765737   2.377375   0.000000
     9  N    3.162485   3.687320   3.556338   0.000000
    10  N    1.010090   3.954456   2.416049   2.195060   0.000000
    11  C    2.118448   4.491310   3.571322   1.367252   1.392286
    12  O    2.678074   5.721281   4.707949   2.340589   2.345560
    13  O    5.039666   2.273638   2.294966   5.371098   4.690789
    14  C    4.481181   1.400613   2.921654   2.572918   3.551065
    15  O    5.583787   2.306725   4.166183   3.135384   4.608048
                   11         12         13         14         15
    11  C    0.000000
    12  O    1.234044   0.000000
    13  O    5.725033   6.917385   0.000000
    14  C    3.653238   4.824561   3.604962   0.000000
    15  O    4.421490   5.475854   4.576544   1.248275   0.000000
 Stoichiometry    C5H3N4O3(1-)
 Framework group  C1[X(C5H3N4O3)]
 Deg. of freedom    39
 Full point group                 C1      NOp   1
 Largest Abelian subgroup         C1      NOp   1
 Largest concise Abelian subgroup C1      NOp   1
                         Standard orientation:                         
 ---------------------------------------------------------------------
 Center     Atomic      Atomic             Coordinates (Angstroms)
 Number     Number       Type             X           Y           Z
 ---------------------------------------------------------------------
      1          6           0       -0.320529    0.597156    0.000031
      2          6           0       -0.212138   -0.785233    0.000048
      3          6           0        2.051488   -0.818632   -0.000010
      4          1           0        2.873305    1.069619   -0.000050
      5          1           0       -2.091375    1.839195    0.000059
      6          1           0       -1.775288   -2.246933   -0.000016
      7          7           0        1.984386    0.584185   -0.000006
      8          7           0        0.895717   -1.529275    0.000035
      9          7           0       -1.688123    0.914351   -0.000005
     10          7           0       -1.506723   -1.273201   -0.000013
     11          6           0       -2.431985   -0.232840   -0.000026
     12          8           0       -3.660902   -0.345212   -0.000019
     13          8           0        3.183477   -1.347553   -0.000033
     14          6           0        0.840098    1.391850    0.000051
     15          8           0        0.931795    2.636752   -0.000028
 ---------------------------------------------------------------------
 Rotational constants (GHZ):      1.8904678      0.7475241      0.5356992
 Standard basis: 6-311+G(d,p) (5D, 7F)
 There are   294 symmetry adapted cartesian basis functions of A   symmetry.
 There are   282 symmetry adapted basis functions of A   symmetry.
   282 basis functions,   456 primitive gaussians,   294 cartesian basis functions
    43 alpha electrons       43 beta electrons
       nuclear repulsion energy       677.5848013637 Hartrees.
 NAtoms=   15 NActive=   15 NUniq=   15 SFac= 1.00D+00 NAtFMM=   60 NAOKFM=F Big=F
 Integral buffers will be    131072 words long.
 Raffenetti 2 integral format.
 Two-electron integral symmetry is turned on.
 ------------------------------------------------------------------------------
 Polarizable Continuum Model (PCM)
 =================================
 Model                : PCM (using non-symmetric T matrix).
 Atomic radii         : SMD-Coulomb.
 Polarization charges : Total charges.
 Charge compensation  : None.
 Solution method      : On-the-fly selection.
 Cavity type          : VdW (van der Waals Surface) (Alpha=1.000).
 Cavity algorithm     : GePol (No added spheres)
                        Default sphere list used, NSphG=   15.
                        Lebedev-Laikov grids with approx.  5.0 points / Ang**2.
                        Smoothing algorithm: Karplus/York (Gamma=1.0000).
                        Polarization charges: spherical gaussians, with
                                              point-specific exponents (IZeta= 3).
                        Self-potential: point-specific (ISelfS= 7).
                        Self-field    : sphere-specific E.n sum rule (ISelfD= 2).
 1st derivatives      : Analytical E(r).r(x)/FMM algorithm (CHGder, D1EAlg=3).
                        Cavity 1st derivative terms included.
 Solvent              : Water, Eps=  78.355300 Eps(inf)=   1.777849
 ------------------------------------------------------------------------------
 Spheres list:
 ISph  on   Nord     Re0    Alpha      Xe            Ye            Ze
    1   C      1    1.8500  1.000     -0.320529      0.597156      0.000031
    2   C      2    1.8500  1.000     -0.212138     -0.785233      0.000048
    3   C      3    1.8500  1.000      2.051488     -0.818632     -0.000010
    4   H      4    1.2000  1.000      2.873305      1.069619     -0.000050
    5   H      5    1.2000  1.000     -2.091375      1.839195      0.000059
    6   H      6    1.2000  1.000     -1.775288     -2.246933     -0.000016
    7   N      7    1.8900  1.000      1.984386      0.584185     -0.000006
    8   N      8    1.8900  1.000      0.895717     -1.529275      0.000035
    9   N      9    1.8900  1.000     -1.688123      0.914351     -0.000005
   10   N     10    1.8900  1.000     -1.506723     -1.273201     -0.000013
   11   C     11    1.8500  1.000     -2.431985     -0.232840     -0.000026
   12   O     12    1.5200  1.000     -3.660902     -0.345212     -0.000019
   13   O     13    1.5200  1.000      3.183477     -1.347553     -0.000033
   14   C     14    1.8500  1.000      0.840098      1.391850      0.000051
   15   O     15    1.5200  1.000      0.931795      2.636752     -0.000028
 ------------------------------------------------------------------------------
 ------------------------------------------------------------------------------
 Atomic radii for non-electrostatic terms: SMD-CDS.
 ------------------------------------------------------------------------------
 Nuclear repulsion after PCM non-electrostatic terms =      677.5911998948 Hartrees.
 One-electron integrals computed using PRISM.
 NBasis=   282 RedAO= T EigKep=  5.30D-06  NBF=   282
 NBsUse=   282 1.00D-06 EigRej= -1.00D+00 NBFU=   282
 ExpMin= 4.38D-02 ExpMax= 8.59D+03 ExpMxC= 1.30D+03 IAcc=2 IRadAn=         4 AccDes= 0.00D+00
 Harris functional with IExCor= 1009 and IRadAn=       4 diagonalized for initial guess.
 HarFok:  IExCor= 1009 AccDes= 0.00D+00 IRadAn=         4 IDoV= 1 UseB2=F ITyADJ=14
 ICtDFT=  3500011 ScaDFX=  1.000000  1.000000  1.000000  1.000000
 FoFCou: FMM=F IPFlag=           0 FMFlag=      100000 FMFlg1=           0
         NFxFlg=           0 DoJE=T BraDBF=F KetDBF=T FulRan=T
         wScrn=  0.000000 ICntrl=     500 IOpCl=  0 I1Cent=   200000004 NGrid=           0
         NMat0=    1 NMatS0=      1 NMatT0=    0 NMatD0=    1 NMtDS0=    0 NMtDT0=    0
 Petite list used in FoFCou.
 Keep R1 ints in memory in canonical form, NReq=809265418.
 Requested convergence on RMS density matrix=1.00D-08 within 128 cycles.
 Requested convergence on MAX density matrix=1.00D-06.
 Requested convergence on             energy=1.00D-06.
 No special actions if energy rises.
 Inv3:  Mode=1 IEnd=     5132592.
 Iteration    1 A*A^-1 deviation from unit magnitude is 6.22D-15 for    876.
 Iteration    1 A*A^-1 deviation from orthogonality  is 3.83D-15 for    889     17.
 Iteration    1 A^-1*A deviation from unit magnitude is 5.77D-15 for   1092.
 Iteration    1 A^-1*A deviation from orthogonality  is 4.01D-14 for    858    462.
 Error on total polarization charges =  0.05477
 SCF Done:  E(RM062X) =  -637.222679521     A.U. after   14 cycles
            NFock= 14  Conv=0.98D-08     -V/T= 2.0037
 SMD-CDS (non-electrostatic) energy       (kcal/mol) =       4.02
 (included in total energy above)

 **********************************************************************

            Population analysis using the SCF density.

 **********************************************************************

 Orbital symmetries:
       Occupied  (A) (A) (A) (A) (A) (A) (A) (A) (A) (A) (A) (A)
                 (A) (A) (A) (A) (A) (A) (A) (A) (A) (A) (A) (A)
                 (A) (A) (A) (A) (A) (A) (A) (A) (A) (A) (A) (A)
                 (A) (A) (A) (A) (A) (A) (A)
       Virtual   (A) (A) (A) (A) (A) (A) (A) (A) (A) (A) (A) (A)
                 (A) (A) (A) (A) (A) (A) (A) (A) (A) (A) (A) (A)
                 (A) (A) (A) (A) (A) (A) (A) (A) (A) (A) (A) (A)
                 (A) (A) (A) (A) (A) (A) (A) (A) (A) (A) (A) (A)
                 (A) (A) (A) (A) (A) (A) (A) (A) (A) (A) (A) (A)
                 (A) (A) (A) (A) (A) (A) (A) (A) (A) (A) (A) (A)
                 (A) (A) (A) (A) (A) (A) (A) (A) (A) (A) (A) (A)
                 (A) (A) (A) (A) (A) (A) (A) (A) (A) (A) (A) (A)
                 (A) (A) (A) (A) (A) (A) (A) (A) (A) (A) (A) (A)
                 (A) (A) (A) (A) (A) (A) (A) (A) (A) (A) (A) (A)
                 (A) (A) (A) (A) (A) (A) (A) (A) (A) (A) (A) (A)
                 (A) (A) (A) (A) (A) (A) (A) (A) (A) (A) (A) (A)
                 (A) (A) (A) (A) (A) (A) (A) (A) (A) (A) (A) (A)
                 (A) (A) (A) (A) (A) (A) (A) (A) (A) (A) (A) (A)
                 (A) (A) (A) (A) (A) (A) (A) (A) (A) (A) (A) (A)
                 (A) (A) (A) (A) (A) (A) (A) (A) (A) (A) (A) (A)
                 (A) (A) (A) (A) (A) (A) (A) (A) (A) (A) (A) (A)
                 (A) (A) (A) (A) (A) (A) (A) (A) (A) (A) (A) (A)
                 (A) (A) (A) (A) (A) (A) (A) (A) (A) (A) (A) (A)
                 (A) (A) (A) (A) (A) (A) (A) (A) (A) (A) (A)
 The electronic state is 1-A.
 Alpha  occ. eigenvalues --  -19.60426 -19.59796 -19.58560 -14.79812 -14.79646
 Alpha  occ. eigenvalues --  -14.78726 -14.73561 -10.68911 -10.67147 -10.66059
 Alpha  occ. eigenvalues --  -10.63019 -10.57258  -1.19537  -1.17334  -1.15077
 Alpha  occ. eigenvalues --   -1.11509  -1.04963  -1.02273  -0.98573  -0.85848
 Alpha  occ. eigenvalues --   -0.75416  -0.74582  -0.71751  -0.65000  -0.62527
 Alpha  occ. eigenvalues --   -0.58247  -0.57640  -0.57011  -0.55815  -0.52674
 Alpha  occ. eigenvalues --   -0.52349  -0.51505  -0.50679  -0.47483  -0.43636
 Alpha  occ. eigenvalues --   -0.38995  -0.37942  -0.37077  -0.35637  -0.34882
 Alpha  occ. eigenvalues --   -0.34415  -0.33289  -0.24778
 Alpha virt. eigenvalues --    0.01070   0.01768   0.02710   0.03109   0.04011
 Alpha virt. eigenvalues --    0.05161   0.05234   0.05837   0.06631   0.07041
 Alpha virt. eigenvalues --    0.08491   0.08599   0.08901   0.09220   0.10145
 Alpha virt. eigenvalues --    0.11904   0.12605   0.13251   0.13737   0.13909
 Alpha virt. eigenvalues --    0.16115   0.17377   0.17928   0.18496   0.18943
 Alpha virt. eigenvalues --    0.20120   0.20314   0.20924   0.21233   0.22606
 Alpha virt. eigenvalues --    0.23222   0.23549   0.23899   0.24096   0.25964
 Alpha virt. eigenvalues --    0.26030   0.26602   0.27063   0.27701   0.28773
 Alpha virt. eigenvalues --    0.28945   0.29257   0.29323   0.30496   0.30753
 Alpha virt. eigenvalues --    0.30886   0.32118   0.32630   0.33103   0.33404
 Alpha virt. eigenvalues --    0.34720   0.34974   0.36354   0.37352   0.37940
 Alpha virt. eigenvalues --    0.38882   0.40103   0.42313   0.43189   0.44702
 Alpha virt. eigenvalues --    0.45682   0.47872   0.48354   0.51051   0.55133
 Alpha virt. eigenvalues --    0.56346   0.58269   0.60537   0.62777   0.63007
 Alpha virt. eigenvalues --    0.64158   0.65774   0.68600   0.69990   0.70132
 Alpha virt. eigenvalues --    0.71148   0.72276   0.75628   0.77992   0.79176
 Alpha virt. eigenvalues --    0.80982   0.81828   0.83477   0.86075   0.86636
 Alpha virt. eigenvalues --    0.88150   0.89161   0.89484   0.90153   0.92285
 Alpha virt. eigenvalues --    0.94958   0.96278   0.97292   0.98166   1.00760
 Alpha virt. eigenvalues --    1.01642   1.06090   1.07804   1.08295   1.10574
 Alpha virt. eigenvalues --    1.12465   1.12490   1.17320   1.17945   1.19625
 Alpha virt. eigenvalues --    1.20237   1.21081   1.21216   1.22105   1.23003
 Alpha virt. eigenvalues --    1.24522   1.25443   1.25689   1.28088   1.28599
 Alpha virt. eigenvalues --    1.28993   1.31438   1.34506   1.35636   1.36534
 Alpha virt. eigenvalues --    1.37185   1.38554   1.42654   1.56240   1.59639
 Alpha virt. eigenvalues --    1.60543   1.64672   1.66405   1.68911   1.70052
 Alpha virt. eigenvalues --    1.71392   1.71706   1.76398   1.80729   1.82513
 Alpha virt. eigenvalues --    1.84837   1.86088   1.87044   1.87192   1.91396
 Alpha virt. eigenvalues --    1.92574   1.94264   1.94656   1.96991   2.04773
 Alpha virt. eigenvalues --    2.09098   2.09804   2.12479   2.22023   2.24338
 Alpha virt. eigenvalues --    2.28047   2.30131   2.31380   2.33256   2.40045
 Alpha virt. eigenvalues --    2.41267   2.45807   2.46714   2.48328   2.54677
 Alpha virt. eigenvalues --    2.62079   2.62505   2.66152   2.68648   2.75021
 Alpha virt. eigenvalues --    2.76290   2.80005   2.83724   2.84564   2.87322
 Alpha virt. eigenvalues --    2.89777   2.90023   2.92064   2.92863   2.95866
 Alpha virt. eigenvalues --    2.96975   2.97594   2.97976   2.99765   3.01590
 Alpha virt. eigenvalues --    3.01919   3.04022   3.05584   3.09885   3.22547
 Alpha virt. eigenvalues --    3.29914   3.39518   3.39664   3.40115   3.40288
 Alpha virt. eigenvalues --    3.42527   3.44369   3.47490   3.48642   3.54779
 Alpha virt. eigenvalues --    3.59482   3.60770   3.64018   3.67035   3.72356
 Alpha virt. eigenvalues --    3.74122   3.83524   3.94843   3.96216   3.97560
 Alpha virt. eigenvalues --    4.00139   4.03666   4.04052   4.08413   4.24139
 Alpha virt. eigenvalues --    4.59270   4.72847   4.83144   4.86588   4.97116
 Alpha virt. eigenvalues --    5.06745   5.16457   5.17796   5.19629   5.21648
 Alpha virt. eigenvalues --    5.31063   5.32519   5.40348   5.47493   5.84302
 Alpha virt. eigenvalues --    5.87944   5.90354  23.77591  23.91414  23.93139
 Alpha virt. eigenvalues --   24.04002  24.16154  35.66047  35.69837  35.76425
 Alpha virt. eigenvalues --   35.82651  50.12186  50.15185  50.16603
          Condensed to atoms (all electrons):
               1          2          3          4          5          6
     1  C   11.829111  -3.621441   0.512490   0.041491   0.017512  -0.000014
     2  C   -3.621441  10.036005  -0.410614   0.012873   0.011424   0.009341
     3  C    0.512490  -0.410614   5.418186  -0.028731  -0.000073   0.001305
     4  H    0.041491   0.012873  -0.028731   0.289869   0.000006  -0.000001
     5  H    0.017512   0.011424  -0.000073   0.000006   0.266498   0.000021
     6  H   -0.000014   0.009341   0.001305  -0.000001   0.000021   0.269887
     7  N   -0.133560   0.135834   0.095221   0.334366   0.000754  -0.000108
     8  N    0.374147   0.068277   0.254700   0.002366  -0.000368   0.007007
     9  N   -0.040811   0.273670  -0.007665  -0.000586   0.339779   0.005756
    10  N    0.085345   0.190692   0.049501  -0.000035   0.006151   0.341641
    11  C    0.039146  -0.463723  -0.036071  -0.000093  -0.037806  -0.040304
    12  O   -0.001784   0.041054  -0.001775   0.000002   0.005134   0.003184
    13  O   -0.064749   0.068645   0.421533   0.007263  -0.000005  -0.000104
    14  C   -3.211623  -0.413239  -0.706649  -0.052266  -0.017953  -0.000388
    15  O   -0.213950  -0.061719   0.012564   0.005217   0.000981   0.000008
               7          8          9         10         11         12
     1  C   -0.133560   0.374147  -0.040811   0.085345   0.039146  -0.001784
     2  C    0.135834   0.068277   0.273670   0.190692  -0.463723   0.041054
     3  C    0.095221   0.254700  -0.007665   0.049501  -0.036071  -0.001775
     4  H    0.334366   0.002366  -0.000586  -0.000035  -0.000093   0.000002
     5  H    0.000754  -0.000368   0.339779   0.006151  -0.037806   0.005134
     6  H   -0.000108   0.007007   0.005756   0.341641  -0.040304   0.003184
     7  N    7.328843  -0.090597   0.024317  -0.014543  -0.009151   0.000760
     8  N   -0.090597   6.988464  -0.009454  -0.041111   0.011959   0.000604
     9  N    0.024317  -0.009454   6.938073  -0.191941   0.327394  -0.088827
    10  N   -0.014543  -0.041111  -0.191941   6.817713   0.388801  -0.089701
    11  C   -0.009151   0.011959   0.327394   0.388801   5.093243   0.393675
    12  O    0.000760   0.000604  -0.088827  -0.089701   0.393675   8.350251
    13  O   -0.142708  -0.127031   0.001862   0.001737  -0.000846  -0.000003
    14  C    0.033299  -0.029375  -0.132867  -0.097206  -0.159914  -0.017758
    15  O   -0.103838   0.000039   0.028312  -0.000058   0.017546   0.000047
              13         14         15
     1  C   -0.064749  -3.211623  -0.213950
     2  C    0.068645  -0.413239  -0.061719
     3  C    0.421533  -0.706649   0.012564
     4  H    0.007263  -0.052266   0.005217
     5  H   -0.000005  -0.017953   0.000981
     6  H   -0.000104  -0.000388   0.000008
     7  N   -0.142708   0.033299  -0.103838
     8  N   -0.127031  -0.029375   0.000039
     9  N    0.001862  -0.132867   0.028312
    10  N    0.001737  -0.097206  -0.000058
    11  C   -0.000846  -0.159914   0.017546
    12  O   -0.000003  -0.017758   0.000047
    13  O    8.459840   0.003417   0.000423
    14  C    0.003417  10.320312   0.494651
    15  O    0.000423   0.494651   8.413499
 Mulliken charges:
               1
     1  C    0.388691
     2  C    0.122920
     3  C    0.426080
     4  H    0.388260
     5  H    0.407945
     6  H    0.402768
     7  N   -0.458887
     8  N   -0.409626
     9  N   -0.467014
    10  N   -0.446985
    11  C    0.476143
    12  O   -0.594860
    13  O   -0.629274
    14  C   -0.012439
    15  O   -0.593721
 Sum of Mulliken charges =  -1.00000
 Mulliken charges with hydrogens summed into heavy atoms:
               1
     1  C    0.388691
     2  C    0.122920
     3  C    0.426080
     7  N   -0.070627
     8  N   -0.409626
     9  N   -0.059068
    10  N   -0.044217
    11  C    0.476143
    12  O   -0.594860
    13  O   -0.629274
    14  C   -0.012439
    15  O   -0.593721
 Electronic spatial extent (au):  <R**2>=           1937.1486
 Charge=             -1.0000 electrons
 Dipole moment (field-independent basis, Debye):
    X=             -4.3488    Y=              1.2833    Z=              0.0003  Tot=              4.5342
 Quadrupole moment (field-independent basis, Debye-Ang):
   XX=           -118.6001   YY=            -90.4464   ZZ=            -70.0750
   XY=              9.7713   XZ=             -0.0002   YZ=              0.0005
 Traceless Quadrupole moment (field-independent basis, Debye-Ang):
   XX=            -25.5596   YY=              2.5941   ZZ=             22.9655
   XY=              9.7713   XZ=             -0.0002   YZ=              0.0005
 Octapole moment (field-independent basis, Debye-Ang**2):
  XXX=             38.8386  YYY=            -35.6903  ZZZ=             -0.0003  XYY=            -64.5168
  XXY=             65.6912  XXZ=              0.0016  XZZ=             -1.2092  YZZ=              1.3133
  YYZ=              0.0010  XYZ=             -0.0008
 Hexadecapole moment (field-independent basis, Debye-Ang**3):
 XXXX=          -2478.5615 YYYY=           -885.8434 ZZZZ=            -69.9978 XXXY=            127.9504
 XXXZ=             -0.0023 YYYX=             11.5864 YYYZ=              0.0031 ZZZX=             -0.0004
 ZZZY=              0.0003 XXYY=           -445.2352 XXZZ=           -299.6351 YYZZ=           -137.7196
 XXYZ=             -0.0008 YYXZ=             -0.0002 ZZXY=              2.7644
 N-N= 6.775911998948D+02 E-N=-2.860991201996D+03  KE= 6.348923404032D+02
 D1PCM: PCM CHGder 1st derivatives, ID1Alg=3 FixD1E=F DoIter=F DoCFld=F I1PDM=0.
 Calling FoFJK, ICntrl=      2127 FMM=F ISym2X=0 I1Cent= 0 IOpClX= 0 NMat=1 NMatS=1 NMatT=0.
 ***** Axes restored to original set *****
 -------------------------------------------------------------------
 Center     Atomic                   Forces (Hartrees/Bohr)
 Number     Number              X              Y              Z
 -------------------------------------------------------------------
      1        6           0.002093600   -0.001922088   -0.000008197
      2        6           0.002251882    0.003708377    0.000007212
      3        6           0.006373638    0.002239913   -0.000006035
      4        1          -0.001224320    0.000544558   -0.000000345
      5        1           0.000603051    0.001304605    0.000000280
      6        1           0.000475697   -0.001625441    0.000000013
      7        7           0.003965953   -0.001725215   -0.000003981
      8        7          -0.004556532    0.002901206    0.000001277
      9        7           0.000990672   -0.006050023    0.000001351
     10        7          -0.000100520    0.005734976   -0.000001382
     11        6          -0.006428705    0.001346511   -0.000005781
     12        8          -0.004824529    0.000280835    0.000002260
     13        8           0.003189204    0.001844154    0.000001492
     14        6          -0.003114153   -0.001851873    0.000018778
     15        8           0.000305061   -0.006730494   -0.000006942
 -------------------------------------------------------------------
 Cartesian Forces:  Max     0.006730494 RMS     0.002733446

 GradGradGradGradGradGradGradGradGradGradGradGradGradGradGradGradGradGrad
 Berny optimization.
 FormGI is forming the generalized inverse of G from B-inverse, IUseBI=4.
 Internal  Forces:  Max     0.007293738 RMS     0.002408864
 Search for a local minimum.
 Step number   1 out of a maximum of   87
 All quantities printed in internal units (Hartrees-Bohrs-Radians)
 Mixed Optimization -- RFO/linear search
 Second derivative matrix not updated -- first step.
 ITU=  0
     Eigenvalues ---    0.01658   0.01720   0.01814   0.01846   0.01853
     Eigenvalues ---    0.01874   0.01893   0.01947   0.01999   0.02025
     Eigenvalues ---    0.02157   0.02297   0.16000   0.16000   0.16000
     Eigenvalues ---    0.23410   0.23499   0.24146   0.25000   0.25000
     Eigenvalues ---    0.25000   0.25000   0.25000   0.39371   0.40965
     Eigenvalues ---    0.43211   0.44002   0.45078   0.45502   0.45958
     Eigenvalues ---    0.46151   0.46313   0.47416   0.50384   0.52322
     Eigenvalues ---    0.56924   0.83436   0.83878   0.89422
 RFO step:  Lambda=-9.16528016D-04 EMin= 1.65804239D-02
 Linear search not attempted -- first point.
 Iteration  1 RMS(Cart)=  0.00815165 RMS(Int)=  0.00001474
 Iteration  2 RMS(Cart)=  0.00001619 RMS(Int)=  0.00000412
 Iteration  3 RMS(Cart)=  0.00000000 RMS(Int)=  0.00000412
 Variable       Old X    -DE/DX   Delta X   Delta X   Delta X     New X
                                 (Linear)    (Quad)   (Total)
    R1        2.62035  -0.00534   0.00000  -0.01037  -0.01039   2.60996
    R2        2.65298  -0.00401   0.00000  -0.00869  -0.00869   2.64429
    R3        2.65814  -0.00382   0.00000  -0.00822  -0.00822   2.64991
    R4        2.52188  -0.00254   0.00000  -0.00421  -0.00422   2.51766
    R5        2.61443  -0.00523   0.00000  -0.01077  -0.01077   2.60366
    R6        2.65397  -0.00648   0.00000  -0.01483  -0.01482   2.63915
    R7        2.56392  -0.00729   0.00000  -0.01384  -0.01384   2.55008
    R8        2.36114  -0.00367   0.00000  -0.00440  -0.00440   2.35675
    R9        1.91397   0.00134   0.00000   0.00294   0.00294   1.91691
   R10        1.90661   0.00143   0.00000   0.00309   0.00309   1.90970
   R11        1.90879   0.00170   0.00000   0.00370   0.00370   1.91249
   R12        2.64678  -0.00720   0.00000  -0.01595  -0.01595   2.63083
   R13        2.58373  -0.00701   0.00000  -0.01378  -0.01377   2.56996
   R14        2.63104  -0.00599   0.00000  -0.01308  -0.01307   2.61797
   R15        2.33201  -0.00483   0.00000  -0.00540  -0.00540   2.32661
   R16        2.35890  -0.00673   0.00000  -0.00801  -0.00801   2.35088
    A1        1.87695   0.00044   0.00000   0.00248   0.00247   1.87943
    A2        2.09294  -0.00136   0.00000  -0.00452  -0.00453   2.08841
    A3        2.31329   0.00091   0.00000   0.00204   0.00205   2.31535
    A4        2.24046   0.00032   0.00000   0.00193   0.00193   2.24238
    A5        1.85301   0.00010   0.00000   0.00102   0.00101   1.85402
    A6        2.18972  -0.00043   0.00000  -0.00295  -0.00293   2.18678
    A7        2.07428   0.00242   0.00000   0.00864   0.00865   2.08293
    A8        2.05570  -0.00162   0.00000  -0.00596  -0.00597   2.04973
    A9        2.15321  -0.00080   0.00000  -0.00268  -0.00268   2.15053
   A10        2.02284   0.00042   0.00000   0.00211   0.00211   2.02495
   A11        2.23322  -0.00100   0.00000  -0.00522  -0.00521   2.22800
   A12        2.02713   0.00058   0.00000   0.00311   0.00311   2.03023
   A13        1.99890  -0.00153   0.00000  -0.00610  -0.00611   1.99279
   A14        2.20987   0.00090   0.00000   0.00386   0.00386   2.21373
   A15        1.91815  -0.00170   0.00000  -0.00711  -0.00711   1.91105
   A16        2.15516   0.00080   0.00000   0.00325   0.00325   2.15841
   A17        2.20038   0.00060   0.00000   0.00272   0.00272   2.20309
   A18        1.93724  -0.00120   0.00000  -0.00538  -0.00538   1.93187
   A19        2.14556   0.00060   0.00000   0.00266   0.00266   2.14822
   A20        1.83942   0.00236   0.00000   0.00899   0.00900   1.84842
   A21        2.23725  -0.00096   0.00000  -0.00362  -0.00362   2.23363
   A22        2.20652  -0.00140   0.00000  -0.00537  -0.00538   2.20114
   A23        1.92658   0.00115   0.00000   0.00528   0.00527   1.93185
   A24        2.24471  -0.00038   0.00000  -0.00185  -0.00185   2.24287
   A25        2.11189  -0.00077   0.00000  -0.00343  -0.00343   2.10847
    D1        3.14155   0.00000   0.00000   0.00006   0.00006  -3.14158
    D2        0.00003   0.00000   0.00000  -0.00003  -0.00003   0.00000
    D3       -0.00005   0.00000   0.00000   0.00009   0.00009   0.00004
    D4       -3.14157   0.00000   0.00000   0.00000   0.00000  -3.14156
    D5        3.14149   0.00000   0.00000   0.00004   0.00004   3.14153
    D6       -0.00001   0.00000   0.00000   0.00004   0.00004   0.00003
    D7       -0.00010   0.00000   0.00000   0.00000   0.00000  -0.00010
    D8        3.14158   0.00000   0.00000   0.00000   0.00000   3.14159
    D9        0.00007   0.00000   0.00000  -0.00016  -0.00016  -0.00009
   D10        3.14152   0.00000   0.00000   0.00015   0.00015  -3.14151
   D11       -3.14152   0.00000   0.00000  -0.00013  -0.00013   3.14154
   D12       -0.00007   0.00000   0.00000   0.00019   0.00019   0.00012
   D13       -0.00001   0.00000   0.00000   0.00005   0.00005   0.00004
   D14        3.14150   0.00000   0.00000   0.00015   0.00015  -3.14154
   D15       -3.14159   0.00000   0.00000   0.00002   0.00002  -3.14157
   D16       -0.00003   0.00000   0.00000   0.00001   0.00001  -0.00003
   D17        0.00007   0.00000   0.00000  -0.00007  -0.00007   0.00001
   D18       -3.14156   0.00000   0.00000  -0.00007  -0.00007   3.14155
   D19       -3.14158   0.00000   0.00000   0.00000   0.00000  -3.14158
   D20        0.00001   0.00000   0.00000  -0.00001  -0.00001   0.00000
   D21        0.00003   0.00000   0.00000  -0.00008  -0.00008  -0.00005
   D22       -3.14156   0.00000   0.00000  -0.00010  -0.00010   3.14152
   D23        0.00003   0.00000   0.00000  -0.00009  -0.00009  -0.00006
   D24       -3.14159   0.00000   0.00000   0.00000   0.00001  -3.14158
   D25       -0.00006   0.00000   0.00000   0.00014   0.00014   0.00008
   D26       -3.14152   0.00000   0.00000  -0.00015  -0.00015   3.14152
   D27        3.14153   0.00000   0.00000   0.00012   0.00012  -3.14153
   D28        0.00007   0.00000   0.00000  -0.00016  -0.00016  -0.00009
   D29       -0.00001   0.00000   0.00000  -0.00004  -0.00004  -0.00004
   D30        3.14155   0.00000   0.00000   0.00004   0.00004  -3.14159
   D31       -3.14151   0.00000   0.00000  -0.00003  -0.00003  -3.14155
   D32        0.00005   0.00000   0.00000   0.00004   0.00004   0.00009
   D33        0.00003   0.00000   0.00000   0.00002   0.00002   0.00004
   D34       -3.14154   0.00000   0.00000  -0.00006  -0.00006  -3.14159
   D35        3.14158   0.00000   0.00000   0.00001   0.00001  -3.14159
   D36        0.00002   0.00000   0.00000  -0.00007  -0.00007  -0.00004
         Item               Value     Threshold  Converged?
 Maximum Force            0.007294     0.000450     NO 
 RMS     Force            0.002409     0.000300     NO 
 Maximum Displacement     0.032222     0.001800     NO 
 RMS     Displacement     0.008155     0.001200     NO 
 Predicted change in Energy=-4.592503D-04
 GradGradGradGradGradGradGradGradGradGradGradGradGradGradGradGradGradGrad

                          Input orientation:                          
 ---------------------------------------------------------------------
 Center     Atomic      Atomic             Coordinates (Angstroms)
 Number     Number       Type             X           Y           Z
 ---------------------------------------------------------------------
      1          6           0        0.321685    0.595334    0.000025
      2          6           0        0.212658   -0.781489    0.000033
      3          6           0       -2.038504   -0.813066   -0.000020
      4          1           0       -2.867983    1.066919   -0.000037
      5          1           0        2.090161    1.839277   -0.000052
      6          1           0        1.771038   -2.245110    0.000006
      7          7           0       -1.976930    0.582152   -0.000004
      8          7           0       -0.892488   -1.525561    0.000037
      9          7           0        1.684260    0.913809    0.000009
     10          7           0        1.501041   -1.269745    0.000020
     11          6           0        2.417979   -0.231249   -0.000030
     12          8           0        3.643851   -0.345548   -0.000053
     13          8           0       -3.169583   -1.338431   -0.000016
     14          6           0       -0.838318    1.383221    0.000070
     15          8           0       -0.932071    2.623717   -0.000006
 ---------------------------------------------------------------------
                    Distance matrix (angstroms):
                    1          2          3          4          5
     1  C    0.000000
     2  C    1.381134   0.000000
     3  C    2.748469   2.251383   0.000000
     4  H    3.224341   3.592626   2.054843   0.000000
     5  H    2.162152   3.223885   4.907219   5.017941   0.000000
     6  H    3.188848   2.137928   4.069811   5.700005   4.096836
     7  N    2.298653   2.579499   1.396576   1.014384   4.256947
     8  N    2.443852   1.332288   1.349444   3.259376   4.496480
     9  N    1.399298   2.244916   4.103787   4.554817   1.010568
    10  N    2.206672   1.377797   3.568884   4.954632   3.164345
    11  C    2.253373   2.272929   4.494302   5.443036   2.096317
    12  O    3.452831   3.458776   5.701555   6.663261   2.680935
    13  O    3.991041   3.427790   1.247137   2.424185   6.145140
    14  C    1.402274   2.406350   2.502823   2.054164   2.963777
    15  O    2.384584   3.592470   3.610495   2.484226   3.122377
                    6          7          8          9         10
     6  H    0.000000
     7  N    4.694750   0.000000
     8  N    2.759008   2.370331   0.000000
     9  N    3.160111   3.676181   3.548261   0.000000
    10  N    1.012045   3.940280   2.407161   2.191227   0.000000
    11  C    2.115223   4.469547   3.554496   1.359964   1.385369
    12  O    2.667539   5.696824   4.687302   2.329372   2.333618
    13  O    5.023127   2.260766   2.284771   5.350923   4.671130
    14  C    4.469175   1.392174   2.909286   2.565881   3.537065
    15  O    5.568868   2.293408   4.149467   3.125536   4.591197
                   11         12         13         14         15
    11  C    0.000000
    12  O    1.231188   0.000000
    13  O    5.696201   6.885398   0.000000
    14  C    3.634554   4.804006   3.583600   0.000000
    15  O    4.401554   5.454869   4.550284   1.244034   0.000000
 Stoichiometry    C5H3N4O3(1-)
 Framework group  C1[X(C5H3N4O3)]
 Deg. of freedom    39
 Full point group                 C1      NOp   1
 Largest Abelian subgroup         C1      NOp   1
 Largest concise Abelian subgroup C1      NOp   1
                         Standard orientation:                         
 ---------------------------------------------------------------------
 Center     Atomic      Atomic             Coordinates (Angstroms)
 Number     Number       Type             X           Y           Z
 ---------------------------------------------------------------------
      1          6           0       -0.321166    0.595645   -0.000023
      2          6           0       -0.213475   -0.781284   -0.000030
      3          6           0        2.037655   -0.815045    0.000023
      4          1           0        2.868958    1.064135    0.000039
      5          1           0       -2.088435    1.841303    0.000054
      6          1           0       -1.773275   -2.243392   -0.000004
      7          7           0        1.977435    0.580233    0.000006
      8          7           0        0.890949   -1.526427   -0.000034
      9          7           0       -1.683431    0.915442   -0.000006
     10          7           0       -1.502332   -1.268289   -0.000017
     11          6           0       -2.418262   -0.228904    0.000033
     12          8           0       -3.644244   -0.342013    0.000056
     13          8           0        3.168224   -1.341507    0.000018
     14          6           0        0.839600    1.382406   -0.000068
     15          8           0        0.934557    2.622811    0.000008
 ---------------------------------------------------------------------
 Rotational constants (GHZ):      1.9070417      0.7540442      0.5403785
 Standard basis: 6-311+G(d,p) (5D, 7F)
 There are   294 symmetry adapted cartesian basis functions of A   symmetry.
 There are   282 symmetry adapted basis functions of A   symmetry.
   282 basis functions,   456 primitive gaussians,   294 cartesian basis functions
    43 alpha electrons       43 beta electrons
       nuclear repulsion energy       680.2925364583 Hartrees.
 NAtoms=   15 NActive=   15 NUniq=   15 SFac= 1.00D+00 NAtFMM=   60 NAOKFM=F Big=F
 Integral buffers will be    131072 words long.
 Raffenetti 2 integral format.
 Two-electron integral symmetry is turned on.
 ------------------------------------------------------------------------------
 Polarizable Continuum Model (PCM)
 =================================
 Model                : PCM (using non-symmetric T matrix).
 Atomic radii         : SMD-Coulomb.
 Polarization charges : Total charges.
 Charge compensation  : None.
 Solution method      : On-the-fly selection.
 Cavity type          : VdW (van der Waals Surface) (Alpha=1.000).
 Cavity algorithm     : GePol (No added spheres)
                        Default sphere list used, NSphG=   15.
                        Lebedev-Laikov grids with approx.  5.0 points / Ang**2.
                        Smoothing algorithm: Karplus/York (Gamma=1.0000).
                        Polarization charges: spherical gaussians, with
                                              point-specific exponents (IZeta= 3).
                        Self-potential: point-specific (ISelfS= 7).
                        Self-field    : sphere-specific E.n sum rule (ISelfD= 2).
 1st derivatives      : Analytical E(r).r(x)/FMM algorithm (CHGder, D1EAlg=3).
                        Cavity 1st derivative terms included.
 Solvent              : Water, Eps=  78.355300 Eps(inf)=   1.777849
 ------------------------------------------------------------------------------
 Spheres list:
 ISph  on   Nord     Re0    Alpha      Xe            Ye            Ze
    1   C      1    1.8500  1.000     -0.321166      0.595645     -0.000023
    2   C      2    1.8500  1.000     -0.213475     -0.781284     -0.000030
    3   C      3    1.8500  1.000      2.037655     -0.815045      0.000023
    4   H      4    1.2000  1.000      2.868958      1.064135      0.000039
    5   H      5    1.2000  1.000     -2.088435      1.841303      0.000054
    6   H      6    1.2000  1.000     -1.773275     -2.243392     -0.000004
    7   N      7    1.8900  1.000      1.977435      0.580233      0.000006
    8   N      8    1.8900  1.000      0.890949     -1.526427     -0.000034
    9   N      9    1.8900  1.000     -1.683431      0.915442     -0.000006
   10   N     10    1.8900  1.000     -1.502332     -1.268289     -0.000017
   11   C     11    1.8500  1.000     -2.418262     -0.228904      0.000033
   12   O     12    1.5200  1.000     -3.644244     -0.342013      0.000056
   13   O     13    1.5200  1.000      3.168224     -1.341507      0.000018
   14   C     14    1.8500  1.000      0.839600      1.382406     -0.000068
   15   O     15    1.5200  1.000      0.934557      2.622811      0.000008
 ------------------------------------------------------------------------------
 ------------------------------------------------------------------------------
 Atomic radii for non-electrostatic terms: SMD-CDS.
 ------------------------------------------------------------------------------
 Nuclear repulsion after PCM non-electrostatic terms =      680.2988502317 Hartrees.
 One-electron integrals computed using PRISM.
 NBasis=   282 RedAO= T EigKep=  5.15D-06  NBF=   282
 NBsUse=   282 1.00D-06 EigRej= -1.00D+00 NBFU=   282
 Initial guess from the checkpoint file:  "/scratch/slurm-3049799/Gau-8883.chk"
 B after Tr=     0.000000    0.000000    0.000000
         Rot=    1.000000    0.000001   -0.000002    0.000487 Ang=   0.06 deg.
 ExpMin= 4.38D-02 ExpMax= 8.59D+03 ExpMxC= 1.30D+03 IAcc=2 IRadAn=         4 AccDes= 0.00D+00
 Harris functional with IExCor= 1009 and IRadAn=       4 diagonalized for initial guess.
 HarFok:  IExCor= 1009 AccDes= 0.00D+00 IRadAn=         4 IDoV= 1 UseB2=F ITyADJ=14
 ICtDFT=  3500011 ScaDFX=  1.000000  1.000000  1.000000  1.000000
 FoFCou: FMM=F IPFlag=           0 FMFlag=      100000 FMFlg1=           0
         NFxFlg=           0 DoJE=T BraDBF=F KetDBF=T FulRan=T
         wScrn=  0.000000 ICntrl=     500 IOpCl=  0 I1Cent=   200000004 NGrid=           0
         NMat0=    1 NMatS0=      1 NMatT0=    0 NMatD0=    1 NMtDS0=    0 NMtDT0=    0
 Petite list used in FoFCou.
 Keep R1 ints in memory in canonical form, NReq=809265418.
 Requested convergence on RMS density matrix=1.00D-08 within 128 cycles.
 Requested convergence on MAX density matrix=1.00D-06.
 Requested convergence on             energy=1.00D-06.
 No special actions if energy rises.
 Inv3:  Mode=1 IEnd=     5093427.
 Iteration    1 A*A^-1 deviation from unit magnitude is 5.11D-15 for     93.
 Iteration    1 A*A^-1 deviation from orthogonality  is 4.52D-15 for   1063     69.
 Iteration    1 A^-1*A deviation from unit magnitude is 6.55D-15 for    637.
 Iteration    1 A^-1*A deviation from orthogonality  is 4.65D-14 for    857    463.
 Error on total polarization charges =  0.05483
 SCF Done:  E(RM062X) =  -637.223104230     A.U. after   12 cycles
            NFock= 12  Conv=0.37D-08     -V/T= 2.0034
 SMD-CDS (non-electrostatic) energy       (kcal/mol) =       3.96
 (included in total energy above)
 D1PCM: PCM CHGder 1st derivatives, ID1Alg=3 FixD1E=F DoIter=F DoCFld=F I1PDM=0.
 Calling FoFJK, ICntrl=      2127 FMM=F ISym2X=0 I1Cent= 0 IOpClX= 0 NMat=1 NMatS=1 NMatT=0.
 ***** Axes restored to original set *****
 -------------------------------------------------------------------
 Center     Atomic                   Forces (Hartrees/Bohr)
 Number     Number              X              Y              Z
 -------------------------------------------------------------------
      1        6           0.000511266    0.000200128    0.000006477
      2        6           0.001403628    0.000298960   -0.000000255
      3        6           0.002165297    0.000587996    0.000012983
      4        1           0.000069423   -0.000130640    0.000000347
      5        1           0.000036748   -0.000110839   -0.000000178
      6        1           0.000101912    0.000151966   -0.000000392
      7        7           0.000431087    0.000200956    0.000003254
      8        7          -0.001737765    0.000336411   -0.000004484
      9        7           0.000182139   -0.000500735   -0.000001453
     10        7           0.000451414    0.000408011   -0.000002521
     11        6          -0.001348684   -0.000029599    0.000007769
     12        8           0.002030222   -0.000152536   -0.000002515
     13        8          -0.002559140   -0.001297945   -0.000004332
     14        6          -0.002173324   -0.000755560   -0.000023284
     15        8           0.000435777    0.000793426    0.000008585
 -------------------------------------------------------------------
 Cartesian Forces:  Max     0.002559140 RMS     0.000840515

 GradGradGradGradGradGradGradGradGradGradGradGradGradGradGradGradGradGrad
 Berny optimization.
 Using GEDIIS/GDIIS optimizer.
 FormGI is forming the generalized inverse of G from B-inverse, IUseBI=4.
 Internal  Forces:  Max     0.002866710 RMS     0.000538549
 Search for a local minimum.
 Step number   2 out of a maximum of   87
 All quantities printed in internal units (Hartrees-Bohrs-Radians)
 Mixed Optimization -- En-DIIS/RFO-DIIS
 Update second derivatives using D2CorX and points    1    2
 DE= -4.25D-04 DEPred=-4.59D-04 R= 9.25D-01
 TightC=F SS=  1.41D+00  RLast= 4.56D-02 DXNew= 5.0454D-01 1.3687D-01
 Trust test= 9.25D-01 RLast= 4.56D-02 DXMaxT set to 3.00D-01
 ITU=  1  0
 Use linear search instead of GDIIS.
     Eigenvalues ---    0.01658   0.01720   0.01814   0.01846   0.01853
     Eigenvalues ---    0.01874   0.01893   0.01946   0.01999   0.02025
     Eigenvalues ---    0.02157   0.02296   0.15992   0.16000   0.16001
     Eigenvalues ---    0.23217   0.23694   0.24184   0.24842   0.25000
     Eigenvalues ---    0.25000   0.25000   0.25821   0.38301   0.40937
     Eigenvalues ---    0.43306   0.43702   0.44894   0.45517   0.45968
     Eigenvalues ---    0.46087   0.46158   0.47367   0.50234   0.51851
     Eigenvalues ---    0.58420   0.83172   0.86356   0.94382
 RFO step:  Lambda=-3.05510784D-05 EMin= 1.65805458D-02
 Quartic linear search produced a step of -0.07451.
 Iteration  1 RMS(Cart)=  0.00157452 RMS(Int)=  0.00000099
 Iteration  2 RMS(Cart)=  0.00000103 RMS(Int)=  0.00000060
 Iteration  3 RMS(Cart)=  0.00000000 RMS(Int)=  0.00000060
 Variable       Old X    -DE/DX   Delta X   Delta X   Delta X     New X
                                 (Linear)    (Quad)   (Total)
    R1        2.60996  -0.00021   0.00077  -0.00135  -0.00058   2.60939
    R2        2.64429   0.00061   0.00065   0.00032   0.00097   2.64526
    R3        2.64991   0.00132   0.00061   0.00189   0.00250   2.65242
    R4        2.51766   0.00162   0.00031   0.00217   0.00249   2.52015
    R5        2.60366   0.00063   0.00080   0.00003   0.00083   2.60449
    R6        2.63915   0.00012   0.00110  -0.00152  -0.00041   2.63873
    R7        2.55008  -0.00025   0.00103  -0.00199  -0.00096   2.54912
    R8        2.35675   0.00287   0.00033   0.00270   0.00303   2.35978
    R9        1.91691  -0.00012  -0.00022   0.00008  -0.00014   1.91677
   R10        1.90970  -0.00010  -0.00023   0.00015  -0.00008   1.90961
   R11        1.91249  -0.00011  -0.00028   0.00018  -0.00009   1.91240
   R12        2.63083  -0.00013   0.00119  -0.00212  -0.00093   2.62990
   R13        2.56996   0.00010   0.00103  -0.00137  -0.00035   2.56961
   R14        2.61797  -0.00020   0.00097  -0.00188  -0.00090   2.61707
   R15        2.32661   0.00204   0.00040   0.00152   0.00192   2.32853
   R16        2.35088   0.00077   0.00060  -0.00003   0.00057   2.35145
    A1        1.87943  -0.00036  -0.00018  -0.00108  -0.00126   1.87816
    A2        2.08841  -0.00030   0.00034  -0.00138  -0.00104   2.08737
    A3        2.31535   0.00066  -0.00015   0.00246   0.00231   2.31765
    A4        2.24238  -0.00066  -0.00014  -0.00192  -0.00206   2.24032
    A5        1.85402   0.00003  -0.00008   0.00017   0.00010   1.85412
    A6        2.18678   0.00063   0.00022   0.00175   0.00196   2.18874
    A7        2.08293  -0.00038  -0.00064  -0.00073  -0.00138   2.08155
    A8        2.04973   0.00027   0.00044   0.00048   0.00093   2.05066
    A9        2.15053   0.00011   0.00020   0.00025   0.00045   2.15098
   A10        2.02495  -0.00013  -0.00016  -0.00020  -0.00035   2.02460
   A11        2.22800   0.00016   0.00039  -0.00033   0.00006   2.22806
   A12        2.03023  -0.00003  -0.00023   0.00052   0.00029   2.03053
   A13        1.99279   0.00079   0.00046   0.00240   0.00286   1.99565
   A14        2.21373  -0.00013  -0.00029   0.00008  -0.00020   2.21353
   A15        1.91105   0.00044   0.00053   0.00100   0.00153   1.91258
   A16        2.15841  -0.00032  -0.00024  -0.00109  -0.00133   2.15708
   A17        2.20309  -0.00003  -0.00020   0.00039   0.00019   2.20328
   A18        1.93187   0.00028   0.00040   0.00050   0.00090   1.93277
   A19        2.14822  -0.00025  -0.00020  -0.00089  -0.00109   2.14713
   A20        1.84842  -0.00039  -0.00067  -0.00060  -0.00127   1.84715
   A21        2.23363   0.00019   0.00027   0.00037   0.00064   2.23427
   A22        2.20114   0.00020   0.00040   0.00022   0.00062   2.20176
   A23        1.93185   0.00039  -0.00039   0.00196   0.00157   1.93342
   A24        2.24287  -0.00080   0.00014  -0.00314  -0.00301   2.23986
   A25        2.10847   0.00041   0.00026   0.00118   0.00144   2.10991
    D1       -3.14158   0.00000   0.00000  -0.00004  -0.00005   3.14156
    D2        0.00000   0.00000   0.00000  -0.00004  -0.00004  -0.00004
    D3        0.00004   0.00000  -0.00001  -0.00006  -0.00007  -0.00003
    D4       -3.14156   0.00000   0.00000  -0.00006  -0.00006   3.14156
    D5        3.14153   0.00000   0.00000  -0.00001  -0.00001   3.14152
    D6        0.00003   0.00000   0.00000   0.00000   0.00000   0.00002
    D7       -0.00010   0.00000   0.00000   0.00001   0.00001  -0.00009
    D8        3.14159   0.00000   0.00000   0.00002   0.00002  -3.14158
    D9       -0.00009   0.00000   0.00001   0.00016   0.00017   0.00008
   D10       -3.14151   0.00000  -0.00001  -0.00017  -0.00018   3.14149
   D11        3.14154   0.00000   0.00001   0.00014   0.00015  -3.14150
   D12        0.00012   0.00000  -0.00001  -0.00019  -0.00020  -0.00009
   D13        0.00004   0.00000   0.00000  -0.00011  -0.00011  -0.00007
   D14       -3.14154   0.00000  -0.00001  -0.00011  -0.00012   3.14153
   D15       -3.14157   0.00000   0.00000   0.00003   0.00003  -3.14155
   D16       -0.00003   0.00000   0.00000   0.00008   0.00007   0.00005
   D17        0.00001   0.00000   0.00000   0.00003   0.00003   0.00004
   D18        3.14155   0.00000   0.00001   0.00007   0.00008  -3.14155
   D19       -3.14158   0.00000   0.00000  -0.00005  -0.00005   3.14155
   D20        0.00000   0.00000   0.00000  -0.00004  -0.00003  -0.00004
   D21       -0.00005   0.00000   0.00001   0.00017   0.00017   0.00012
   D22        3.14152   0.00000   0.00001   0.00018   0.00019  -3.14147
   D23       -0.00006   0.00000   0.00001   0.00015   0.00015   0.00009
   D24       -3.14158   0.00000   0.00000  -0.00009  -0.00009   3.14152
   D25        0.00008   0.00000  -0.00001  -0.00012  -0.00013  -0.00005
   D26        3.14152   0.00000   0.00001   0.00018   0.00019  -3.14148
   D27       -3.14153   0.00000  -0.00001  -0.00011  -0.00012   3.14154
   D28       -0.00009   0.00000   0.00001   0.00019   0.00021   0.00011
   D29       -0.00004   0.00000   0.00000   0.00005   0.00005   0.00001
   D30       -3.14159   0.00000   0.00000  -0.00005  -0.00006   3.14154
   D31       -3.14155   0.00000   0.00000   0.00005   0.00006  -3.14149
   D32        0.00009   0.00000   0.00000  -0.00004  -0.00005   0.00004
   D33        0.00004   0.00000   0.00000  -0.00008  -0.00008  -0.00003
   D34       -3.14159   0.00000   0.00000   0.00002   0.00002  -3.14157
   D35       -3.14159   0.00000   0.00000  -0.00003  -0.00003   3.14156
   D36       -0.00004   0.00000   0.00000   0.00006   0.00007   0.00003
         Item               Value     Threshold  Converged?
 Maximum Force            0.002867     0.000450     NO 
 RMS     Force            0.000539     0.000300     NO 
 Maximum Displacement     0.005752     0.001800     NO 
 RMS     Displacement     0.001574     0.001200     NO 
 Predicted change in Energy=-1.810715D-05
 GradGradGradGradGradGradGradGradGradGradGradGradGradGradGradGradGradGrad

                          Input orientation:                          
 ---------------------------------------------------------------------
 Center     Atomic      Atomic             Coordinates (Angstroms)
 Number     Number       Type             X           Y           Z
 ---------------------------------------------------------------------
      1          6           0        0.322004    0.595665   -0.000029
      2          6           0        0.213462   -0.780890   -0.000011
      3          6           0       -2.040451   -0.812855    0.000067
      4          1           0       -2.869579    1.066769    0.000033
      5          1           0        2.091931    1.838120   -0.000042
      6          1           0        1.772770   -2.244203   -0.000038
      7          7           0       -1.978540    0.582129    0.000011
      8          7           0       -0.894062   -1.523785   -0.000004
      9          7           0        1.685375    0.912988    0.000019
     10          7           0        1.502372   -1.268999   -0.000011
     11          6           0        2.419685   -0.231472    0.000035
     12          8           0        3.646564   -0.345917    0.000021
     13          8           0       -3.172627   -1.339664    0.000003
     14          6           0       -0.840177    1.382698   -0.000073
     15          8           0       -0.931930    2.623646    0.000003
 ---------------------------------------------------------------------
                    Distance matrix (angstroms):
                    1          2          3          4          5
     1  C    0.000000
     2  C    1.380828   0.000000
     3  C    2.750477   2.254140   0.000000
     4  H    3.226166   3.594300   2.054371   0.000000
     5  H    2.162483   3.223020   4.909608   5.021112   0.000000
     6  H    3.188977   2.138394   4.073011   5.702100   4.094780
     7  N    2.300585   2.581220   1.396357   1.014311   4.259841
     8  N    2.443539   1.333604   1.348937   3.257858   4.496504
     9  N    1.399812   2.244048   4.106131   4.557549   1.010523
    10  N    2.206862   1.378238   3.572067   4.956791   3.162557
    11  C    2.254866   2.273605   4.497869   5.446260   2.095384
    12  O    3.455325   3.460548   5.706152   6.667518   2.680839
    13  O    3.994740   3.431884   1.248739   2.425440   6.149299
    14  C    1.403598   2.406505   2.502221   2.053846   2.967266
    15  O    2.384336   3.592045   3.610866   2.485629   3.124225
                    6          7          8          9         10
     6  H    0.000000
     7  N    4.696859   0.000000
     8  N    2.762426   2.368748   0.000000
     9  N    3.158400   3.678824   3.548430   0.000000
    10  N    1.011997   3.942516   2.409940   2.189648   0.000000
    11  C    2.114139   4.472844   3.556823   1.359779   1.384892
    12  O    2.667320   5.701146   4.690912   2.330472   2.334446
    13  O    5.027440   2.262550   2.285993   5.354869   4.675533
    14  C    4.470112   1.391683   2.906982   2.568860   3.538224
    15  O    5.568784   2.294163   4.147603   3.126761   4.591134
                   11         12         13         14         15
    11  C    0.000000
    12  O    1.232205   0.000000
    13  O    5.701056   6.891219   0.000000
    14  C    3.637615   4.808217   3.584910   0.000000
    15  O    4.402842   5.457188   4.552862   1.244335   0.000000
 Stoichiometry    C5H3N4O3(1-)
 Framework group  C1[X(C5H3N4O3)]
 Deg. of freedom    39
 Full point group                 C1      NOp   1
 Largest Abelian subgroup         C1      NOp   1
 Largest concise Abelian subgroup C1      NOp   1
                         Standard orientation:                         
 ---------------------------------------------------------------------
 Center     Atomic      Atomic             Coordinates (Angstroms)
 Number     Number       Type             X           Y           Z
 ---------------------------------------------------------------------
      1          6           0       -0.321689    0.595930    0.000031
      2          6           0       -0.214301   -0.780716    0.000013
      3          6           0        2.039585   -0.814570   -0.000064
      4          1           0        2.870288    1.064358   -0.000030
      5          1           0       -2.090573    1.839868    0.000044
      6          1           0       -1.774836   -2.242721    0.000040
      7          7           0        1.978843    0.580466   -0.000008
      8          7           0        0.892599   -1.524538    0.000007
      9          7           0       -1.684793    0.914396   -0.000017
     10          7           0       -1.503620   -1.267744    0.000013
     11          6           0       -2.420063   -0.229448   -0.000032
     12          8           0       -3.647037   -0.342864   -0.000019
     13          8           0        3.171319   -1.342328    0.000000
     14          6           0        0.841152    1.381988    0.000076
     15          8           0        0.933945    2.622859   -0.000001
 ---------------------------------------------------------------------
 Rotational constants (GHZ):      1.9078268      0.7527865      0.5397952
 Standard basis: 6-311+G(d,p) (5D, 7F)
 There are   294 symmetry adapted cartesian basis functions of A   symmetry.
 There are   282 symmetry adapted basis functions of A   symmetry.
   282 basis functions,   456 primitive gaussians,   294 cartesian basis functions
    43 alpha electrons       43 beta electrons
       nuclear repulsion energy       680.0532420282 Hartrees.
 NAtoms=   15 NActive=   15 NUniq=   15 SFac= 1.00D+00 NAtFMM=   60 NAOKFM=F Big=F
 Integral buffers will be    131072 words long.
 Raffenetti 2 integral format.
 Two-electron integral symmetry is turned on.
 ------------------------------------------------------------------------------
 Polarizable Continuum Model (PCM)
 =================================
 Model                : PCM (using non-symmetric T matrix).
 Atomic radii         : SMD-Coulomb.
 Polarization charges : Total charges.
 Charge compensation  : None.
 Solution method      : On-the-fly selection.
 Cavity type          : VdW (van der Waals Surface) (Alpha=1.000).
 Cavity algorithm     : GePol (No added spheres)
                        Default sphere list used, NSphG=   15.
                        Lebedev-Laikov grids with approx.  5.0 points / Ang**2.
                        Smoothing algorithm: Karplus/York (Gamma=1.0000).
                        Polarization charges: spherical gaussians, with
                                              point-specific exponents (IZeta= 3).
                        Self-potential: point-specific (ISelfS= 7).
                        Self-field    : sphere-specific E.n sum rule (ISelfD= 2).
 1st derivatives      : Analytical E(r).r(x)/FMM algorithm (CHGder, D1EAlg=3).
                        Cavity 1st derivative terms included.
 Solvent              : Water, Eps=  78.355300 Eps(inf)=   1.777849
 ------------------------------------------------------------------------------
 Spheres list:
 ISph  on   Nord     Re0    Alpha      Xe            Ye            Ze
    1   C      1    1.8500  1.000     -0.321689      0.595930      0.000031
    2   C      2    1.8500  1.000     -0.214301     -0.780716      0.000013
    3   C      3    1.8500  1.000      2.039585     -0.814570     -0.000064
    4   H      4    1.2000  1.000      2.870288      1.064358     -0.000030
    5   H      5    1.2000  1.000     -2.090573      1.839868      0.000044
    6   H      6    1.2000  1.000     -1.774836     -2.242721      0.000040
    7   N      7    1.8900  1.000      1.978843      0.580466     -0.000008
    8   N      8    1.8900  1.000      0.892599     -1.524538      0.000007
    9   N      9    1.8900  1.000     -1.684793      0.914396     -0.000017
   10   N     10    1.8900  1.000     -1.503620     -1.267744      0.000013
   11   C     11    1.8500  1.000     -2.420063     -0.229448     -0.000032
   12   O     12    1.5200  1.000     -3.647037     -0.342864     -0.000019
   13   O     13    1.5200  1.000      3.171319     -1.342328      0.000000
   14   C     14    1.8500  1.000      0.841152      1.381988      0.000076
   15   O     15    1.5200  1.000      0.933945      2.622859     -0.000001
 ------------------------------------------------------------------------------
 ------------------------------------------------------------------------------
 Atomic radii for non-electrostatic terms: SMD-CDS.
 ------------------------------------------------------------------------------
 Nuclear repulsion after PCM non-electrostatic terms =      680.0595597439 Hartrees.
 One-electron integrals computed using PRISM.
 NBasis=   282 RedAO= T EigKep=  5.16D-06  NBF=   282
 NBsUse=   282 1.00D-06 EigRej= -1.00D+00 NBFU=   282
 Initial guess from the checkpoint file:  "/scratch/slurm-3049799/Gau-8883.chk"
 B after Tr=     0.000000    0.000000    0.000000
         Rot=    1.000000   -0.000003    0.000002   -0.000081 Ang=  -0.01 deg.
 Keep R1 ints in memory in canonical form, NReq=809265418.
 Requested convergence on RMS density matrix=1.00D-08 within 128 cycles.
 Requested convergence on MAX density matrix=1.00D-06.
 Requested convergence on             energy=1.00D-06.
 No special actions if energy rises.
 Inv3:  Mode=1 IEnd=     5101248.
 Iteration    1 A*A^-1 deviation from unit magnitude is 6.44D-15 for    864.
 Iteration    1 A*A^-1 deviation from orthogonality  is 6.61D-15 for    791     38.
 Iteration    1 A^-1*A deviation from unit magnitude is 5.55D-15 for    132.
 Iteration    1 A^-1*A deviation from orthogonality  is 3.19D-14 for    858    462.
 Error on total polarization charges =  0.05487
 SCF Done:  E(RM062X) =  -637.223125141     A.U. after   10 cycles
            NFock= 10  Conv=0.59D-08     -V/T= 2.0034
 SMD-CDS (non-electrostatic) energy       (kcal/mol) =       3.96
 (included in total energy above)
 D1PCM: PCM CHGder 1st derivatives, ID1Alg=3 FixD1E=F DoIter=F DoCFld=F I1PDM=0.
 Calling FoFJK, ICntrl=      2127 FMM=F ISym2X=0 I1Cent= 0 IOpClX= 0 NMat=1 NMatS=1 NMatT=0.
 ***** Axes restored to original set *****
 -------------------------------------------------------------------
 Center     Atomic                   Forces (Hartrees/Bohr)
 Number     Number              X              Y              Z
 -------------------------------------------------------------------
      1        6           0.000353185   -0.000032490   -0.000004553
      2        6           0.000353181    0.000173257   -0.000002645
      3        6           0.001460581   -0.000078736   -0.000028673
      4        1           0.000024023    0.000006885   -0.000000241
      5        1           0.000001822   -0.000009843    0.000000493
      6        1           0.000035747    0.000059973    0.000001511
      7        7           0.000192902    0.000284938   -0.000000177
      8        7          -0.000747186   -0.000045327    0.000009186
      9        7          -0.000032009    0.000275815    0.000000720
     10        7           0.000054781   -0.000277566    0.000004570
     11        6          -0.000752298   -0.000052304   -0.000010870
     12        8           0.000645091    0.000005067    0.000003318
     13        8          -0.000805470   -0.000336857    0.000010516
     14        6          -0.000904559   -0.000198991    0.000026573
     15        8           0.000120211    0.000226181   -0.000009730
 -------------------------------------------------------------------
 Cartesian Forces:  Max     0.001460581 RMS     0.000363137

 GradGradGradGradGradGradGradGradGradGradGradGradGradGradGradGradGradGrad
 Berny optimization.
 Using GEDIIS/GDIIS optimizer.
 FormGI is forming the generalized inverse of G from B-inverse, IUseBI=4.
 Internal  Forces:  Max     0.000871343 RMS     0.000170262
 Search for a local minimum.
 Step number   3 out of a maximum of   87
 All quantities printed in internal units (Hartrees-Bohrs-Radians)
 Mixed Optimization -- En-DIIS/RFO-DIIS
 Swapping is turned off.
 Update second derivatives using D2CorX and points    1    2    3
 DE= -2.09D-05 DEPred=-1.81D-05 R= 1.15D+00
 TightC=F SS=  1.41D+00  RLast= 8.98D-03 DXNew= 5.0454D-01 2.6932D-02
 Trust test= 1.15D+00 RLast= 8.98D-03 DXMaxT set to 3.00D-01
 ITU=  1  1  0
     Eigenvalues ---    0.01658   0.01720   0.01814   0.01847   0.01853
     Eigenvalues ---    0.01874   0.01893   0.01946   0.01999   0.02025
     Eigenvalues ---    0.02156   0.02296   0.15882   0.16000   0.16028
     Eigenvalues ---    0.21481   0.23687   0.24144   0.24399   0.25000
     Eigenvalues ---    0.25000   0.25012   0.29629   0.35150   0.40935
     Eigenvalues ---    0.42240   0.43739   0.44371   0.45512   0.45962
     Eigenvalues ---    0.46154   0.46309   0.48247   0.50254   0.51483
     Eigenvalues ---    0.58913   0.78688   0.84227   0.88540
 En-DIIS/RFO-DIIS IScMMF=        0 using points:     3    2
 RFO step:  Lambda=-3.44067394D-06.
 DidBck=F Rises=F RFO-DIIS coefs:    1.20279   -0.20279
 Iteration  1 RMS(Cart)=  0.00035084 RMS(Int)=  0.00000021
 Iteration  2 RMS(Cart)=  0.00000025 RMS(Int)=  0.00000008
 Variable       Old X    -DE/DX   Delta X   Delta X   Delta X     New X
                                 (Linear)    (Quad)   (Total)
    R1        2.60939   0.00014  -0.00012   0.00037   0.00026   2.60964
    R2        2.64526  -0.00003   0.00020  -0.00025  -0.00006   2.64521
    R3        2.65242   0.00039   0.00051   0.00084   0.00135   2.65376
    R4        2.52015   0.00033   0.00050   0.00048   0.00099   2.52113
    R5        2.60449   0.00003   0.00017  -0.00013   0.00004   2.60453
    R6        2.63873   0.00022  -0.00008   0.00034   0.00026   2.63899
    R7        2.54912  -0.00049  -0.00019  -0.00126  -0.00145   2.54767
    R8        2.35978   0.00087   0.00061   0.00099   0.00161   2.36138
    R9        1.91677  -0.00001  -0.00003   0.00001  -0.00002   1.91675
   R10        1.90961  -0.00002  -0.00002   0.00000  -0.00002   1.90959
   R11        1.91240  -0.00004  -0.00002  -0.00005  -0.00007   1.91233
   R12        2.62990  -0.00038  -0.00019  -0.00118  -0.00137   2.62853
   R13        2.56961   0.00016  -0.00007   0.00022   0.00015   2.56976
   R14        2.61707   0.00003  -0.00018  -0.00004  -0.00022   2.61684
   R15        2.32853   0.00064   0.00039   0.00066   0.00105   2.32958
   R16        2.35145   0.00022   0.00012   0.00018   0.00030   2.35175
    A1        1.87816  -0.00001  -0.00026   0.00005  -0.00021   1.87795
    A2        2.08737  -0.00004  -0.00021   0.00003  -0.00018   2.08719
    A3        2.31765   0.00005   0.00047  -0.00008   0.00038   2.31804
    A4        2.24032  -0.00009  -0.00042  -0.00007  -0.00049   2.23984
    A5        1.85412   0.00010   0.00002   0.00048   0.00050   1.85462
    A6        2.18874  -0.00001   0.00040  -0.00041  -0.00002   2.18873
    A7        2.08155   0.00022  -0.00028   0.00108   0.00080   2.08235
    A8        2.05066  -0.00019   0.00019  -0.00095  -0.00076   2.04989
    A9        2.15098  -0.00004   0.00009  -0.00013  -0.00004   2.15094
   A10        2.02460   0.00003  -0.00007   0.00042   0.00035   2.02494
   A11        2.22806   0.00002   0.00001  -0.00016  -0.00015   2.22791
   A12        2.03053  -0.00005   0.00006  -0.00026  -0.00020   2.03033
   A13        1.99565  -0.00007   0.00058  -0.00066  -0.00008   1.99557
   A14        2.21353   0.00007  -0.00004   0.00046   0.00042   2.21394
   A15        1.91258  -0.00009   0.00031  -0.00060  -0.00029   1.91229
   A16        2.15708   0.00002  -0.00027   0.00014  -0.00013   2.15695
   A17        2.20328   0.00010   0.00004   0.00058   0.00062   2.20390
   A18        1.93277  -0.00014   0.00018  -0.00085  -0.00067   1.93210
   A19        2.14713   0.00004  -0.00022   0.00027   0.00005   2.14718
   A20        1.84715   0.00014  -0.00026   0.00092   0.00067   1.84782
   A21        2.23427  -0.00011   0.00013  -0.00064  -0.00051   2.23376
   A22        2.20176  -0.00003   0.00013  -0.00028  -0.00015   2.20161
   A23        1.93342  -0.00005   0.00032  -0.00023   0.00009   1.93351
   A24        2.23986  -0.00016  -0.00061  -0.00062  -0.00123   2.23863
   A25        2.10991   0.00021   0.00029   0.00085   0.00114   2.11105
    D1        3.14156   0.00000  -0.00001   0.00008   0.00007  -3.14156
    D2       -0.00004   0.00000  -0.00001   0.00013   0.00012   0.00008
[...]
 ! A14   A(1,9,5)              126.8495         -DE/DX =    0.0                 !
 ! A15   A(1,9,11)             109.5662         -DE/DX =    0.0                 !
 ! A16   A(5,9,11)             123.5843         -DE/DX =    0.0                 !
 ! A17   A(2,10,6)             126.2744         -DE/DX =    0.0                 !
 ! A18   A(2,10,11)            110.701          -DE/DX =    0.0                 !
 ! A19   A(6,10,11)            123.0246         -DE/DX =    0.0                 !
 ! A20   A(9,11,10)            105.8721         -DE/DX =    0.0                 !
 ! A21   A(9,11,12)            127.9848         -DE/DX =    0.0                 !
 ! A22   A(10,11,12)           126.1431         -DE/DX =    0.0                 !
 ! A23   A(1,14,7)             110.7818         -DE/DX =    0.0                 !
 ! A24   A(1,14,15)            128.2641         -DE/DX =    0.0                 !
 ! A25   A(7,14,15)            120.9541         -DE/DX =    0.0                 !
 ! D1    D(9,1,2,8)            180.002          -DE/DX =    0.0                 !
 ! D2    D(9,1,2,10)             0.0045         -DE/DX =    0.0                 !
 ! D3    D(14,1,2,8)             0.0046         -DE/DX =    0.0                 !
 ! D4    D(14,1,2,10)          180.0071         -DE/DX =    0.0                 !
 ! D5    D(2,1,9,5)            179.9969         -DE/DX =    0.0                 !
 ! D6    D(2,1,9,11)             0.0001         -DE/DX =    0.0                 !
 ! D7    D(14,1,9,5)            -0.0063         -DE/DX =    0.0                 !
 ! D8    D(14,1,9,11)         -180.003          -DE/DX =    0.0                 !
 ! D9    D(2,1,14,7)            -0.0111         -DE/DX =    0.0                 !
 ! D10   D(2,1,14,15)         -179.9928         -DE/DX =    0.0                 !
 ! D11   D(9,1,14,7)           179.9923         -DE/DX =    0.0                 !
 ! D12   D(9,1,14,15)            0.0106         -DE/DX =    0.0                 !
 ! D13   D(1,2,8,3)              0.01           -DE/DX =    0.0                 !
 ! D14   D(10,2,8,3)          -179.993          -DE/DX =    0.0                 !
 ! D15   D(1,2,10,6)           179.9968         -DE/DX =    0.0                 !
 ! D16   D(1,2,10,11)           -0.0076         -DE/DX =    0.0                 !
 ! D17   D(8,2,10,6)            -0.0008         -DE/DX =    0.0                 !
 ! D18   D(8,2,10,11)          179.9948         -DE/DX =    0.0                 !
 ! D19   D(8,3,7,4)           -179.9891         -DE/DX =    0.0                 !
 ! D20   D(8,3,7,14)             0.0098         -DE/DX =    0.0                 !
 ! D21   D(13,3,7,4)            -0.0213         -DE/DX =    0.0                 !
 ! D22   D(13,3,7,14)          179.9776         -DE/DX =    0.0                 !
 ! D23   D(7,3,8,2)             -0.0161         -DE/DX =    0.0                 !
 ! D24   D(13,3,8,2)          -179.982          -DE/DX =    0.0                 !
 ! D25   D(3,7,14,1)             0.0046         -DE/DX =    0.0                 !
 ! D26   D(3,7,14,15)          179.9878         -DE/DX =    0.0                 !
 ! D27   D(4,7,14,1)           180.0035         -DE/DX =    0.0                 !
 ! D28   D(4,7,14,15)           -0.0133         -DE/DX =    0.0                 !
 ! D29   D(1,9,11,10)           -0.0047         -DE/DX =    0.0                 !
 ! D30   D(1,9,11,12)          180.0039         -DE/DX =    0.0                 !
 ! D31   D(5,9,11,10)         -180.0015         -DE/DX =    0.0                 !
 ! D32   D(5,9,11,12)            0.007          -DE/DX =    0.0                 !
 ! D33   D(2,10,11,9)            0.0077         -DE/DX =    0.0                 !
 ! D34   D(2,10,11,12)        -180.0007         -DE/DX =    0.0                 !
 ! D35   D(6,10,11,9)         -179.9966         -DE/DX =    0.0                 !
 ! D36   D(6,10,11,12)          -0.0049         -DE/DX =    0.0                 !
 --------------------------------------------------------------------------------
 GradGradGradGradGradGradGradGradGradGradGradGradGradGradGradGradGradGrad

 1\1\GINC-LEGACY-N1\Freq\RM062X\6-311+G(d,p)\C5H3N4O3(1-)\CAM298\03-May
 -2021\0\\#N Geom=AllCheck Guess=TCheck SCRF=Check GenChk RM062X/6-311+
 G(d,p) Freq\\Title Card Required\\-1,1\C,0.3219975896,0.5957970401,0.0
 00024116\C,0.2137437997,-0.7809170584,0.0000061259\C,-2.0398986858,-0.
 8128770077,-0.0001999437\H,-2.8696953687,1.0668129069,-0.0000254698\H,
 2.0922635268,1.83808429,-0.0000676488\H,1.773248885,-2.2444774097,0.00
 01003296\N,-1.978612978,0.5822724407,-0.000035429\N,-0.8944129544,-1.5
 23805346,0.0000000315\N,1.6853361977,0.9131270097,-0.0000226878\N,1.50
 25338539,-1.2693997071,0.0000531078\C,2.419368568,-0.2316068677,-0.000
 0717143\O,3.6468290061,-0.3458164656,-0.0000548706\O,-3.1730086356,-1.
 3396918734,0.0000922714\C,-0.8410851826,1.3827723352,0.0001370623\O,-0
 .9318106217,2.6239547129,0.0000467196\\Version=EM64L-G09RevD.01\State=
 1-A\HF=-637.2231282\RMSD=2.310e-09\RMSF=8.909e-05\ZeroPoint=0.0960667\
 Thermal=0.1049901\Dipole=1.7209311,0.5349946,-0.0002508\DipoleDeriv=0.
 0167329,1.2980697,-0.0000028,0.7878842,-1.8190649,-0.0000752,-0.000050
 5,-0.0000738,-0.1319793,2.2903384,0.5819594,0.0000967,-0.1764467,2.068
 9039,0.0001063,0.0000694,0.0000856,0.2703922,3.9053237,1.1783627,-0.00
 00107,0.6568217,1.791032,-0.0000201,-0.0005236,-0.0001063,0.4965961,0.
 3558946,-0.0610114,-0.0000111,-0.0623345,0.2622523,-0.000025,0.0000036
 ,-0.000044,0.3967034,0.2342526,0.0678491,0.0000096,0.0674881,0.4730079
 ,0.,0.0000157,0.0000159,0.439323,0.2470215,-0.0493545,0.0000099,-0.074
 4838,0.4709724,-0.0000067,-0.0000006,-0.0000061,0.4302258,-1.2774219,-
 0.3271446,0.0000014,-0.7351942,-1.5650147,0.0000497,-0.000142,-0.00014
 04,-0.4529615,-2.5674629,-1.1080143,-0.0000297,0.2707359,-1.0994847,-0
 .0000783,-0.0001245,0.0000162,-0.5209727,-1.3304469,-0.1340867,0.00000
 31,0.5945896,-1.1709626,-0.0000183,0.0000705,-0.000025,-0.3976609,-1.9
 570174,0.1769029,0.0000074,-0.339171,-0.8211546,0.0000483,0.000026,-0.
 0000461,-0.4548314,4.206074,-0.5233788,-0.0001449,-0.2671099,1.5612353
 ,-0.0000304,-0.0000309,-0.0000659,0.501704,-3.2673814,0.5309253,0.0001
 ,0.2181475,-0.8177656,-0.0000032,-0.000079,0.0000357,-0.6484029,-2.894
 819,-1.0198274,-0.0000349,-0.9020777,-1.2441105,-0.0000038,0.0006231,0
 .0002357,-0.7199404,1.9675004,-0.9229356,-0.0000058,-0.505332,4.216022
 4,0.0001707,0.000266,-0.0001203,0.4439586,-0.9285886,0.3116843,0.00001
 17,0.4664828,-3.3058685,-0.000114,-0.000123,0.0002389,-0.6521539\Polar
 =191.8367558,-3.1472269,165.3939149,-0.0019443,0.0004956,70.3967354\PG
 =C01 [X(C5H3N4O3)]\NImag=0\\0.79256003,-0.06751221,0.74865956,-0.00002
 300,0.00001848,0.08136926,-0.11476388,0.01037056,0.00000458,0.78380847
 ,-0.07911817,-0.33184165,-0.00000356,0.08904587,0.75086896,-0.00000253
 ,-0.00000320,-0.06909783,0.00000856,-0.00000215,0.16677224,-0.02650866
 ,0.03552719,0.00000347,-0.11205588,-0.03204408,-0.00001084,0.80849809,
 0.02647236,-0.04144869,-0.00000061,0.00807039,0.05548459,-0.00000382,0
 .05645873,0.57481107,0.00000445,-0.00000057,0.00198144,0.00000592,-0.0
 0000226,-0.00845070,-0.00007072,-0.00004223,0.22077646,-0.00203195,-0.
 00391012,-0.00000055,-0.00114621,-0.00086392,0.00000020,0.00732596,0.0
 0325222,-0.00000016,0.36663506,-0.00418858,-0.00125121,-0.00000049,-0.
 00240315,-0.00225338,0.00000008,0.03039343,-0.01148158,0.00000039,-0.1
 6403672,0.15176115,0.00000013,-0.00000158,0.00299006,-0.00000002,0.000
 00018,-0.00094139,0.00000537,-0.00000345,-0.00283966,0.00000127,0.0000
 1069,0.01252723,-0.00123754,-0.02547709,0.00000043,-0.00716948,0.00165
 168,0.00000010,0.00061532,0.00012321,0.00000002,0.00000700,0.00001429,
 0.,0.11831183,-0.00286742,0.00596318,-0.00000012,0.00110414,0.00035920
 ,-0.00000006,-0.00209638,0.00022834,0.00000056,0.00000245,0.00008769,0
 .00000002,0.15263393,0.40354435,-0.00000054,0.00000029,-0.00800444,-0.
 00000064,-0.00000072,-0.00058389,-0.00000074,0.00000039,-0.00015667,-0
 .00000001,-0.00000002,0.00005568,-0.00000991,-0.00001623,0.00452303,-0
 .00728386,0.00109733,-0.00000009,0.00334256,0.02763030,0.00000003,-0.0
 0053796,0.00014969,-0.00000005,0.00001386,-0.00006665,0.,0.00125716,-0
 .00055420,-0.00000002,0.08386243,-0.00180436,0.00296721,0.00000026,0.0
 0521816,-0.00090737,-0.00000077,0.00165899,-0.00034795,-0.00000009,0.0
 0009477,-0.00007185,0.00000002,0.00033048,-0.00007930,0.00000005,-0.10
 649036,0.43788944,0.00000029,-0.00000095,0.00306386,0.00000060,0.00000
 069,-0.00632993,0.00000005,-0.00000001,-0.00047107,0.,-0.00000001,0.00
 009838,0.00000004,0.00000005,0.00155054,0.00000418,-0.00002097,0.00964
 719,-0.06232431,0.00103061,-0.00000609,-0.00381765,-0.01323425,-0.0000
 0006,-0.14203566,0.04582899,0.00000417,-0.35561319,0.15457580,0.000001
 60,0.00012530,0.00023974,-0.00000016,0.00006609,-0.00090749,0.00000004
 ,0.81038976,-0.00851550,0.04516266,0.00000002,-0.02714565,-0.04109146,
 -0.00000183,0.00473045,-0.20041274,-0.00001421,0.15623275,-0.15282817,
 -0.00000812,-0.00009025,-0.00022771,-0.00000013,-0.00040362,0.00016375
 ,0.00000008,-0.06805492,0.68507532,-0.00000119,0.00000636,0.00649770,-
 0.00000527,-0.00000759,-0.00007090,-0.00000319,-0.00001213,-0.05519701
 ,-0.00000196,-0.00001277,-0.00939174,-0.00000011,0.00000001,-0.0000944
 9,-0.00000005,-0.00000006,-0.00012428,0.00000695,0.00003827,0.05254061
 ,0.03821465,-0.07217638,-0.00000379,-0.26290983,-0.11272283,-0.0000031
 8,-0.20136108,0.10195533,-0.00002037,0.00376959,0.00126610,-0.00000169
 ,0.00034542,0.00207206,0.00000099,0.00262904,-0.00215594,-0.00000036,0
 .00674579,0.06015829,0.00000217,0.67163393,-0.02823587,-0.02620407,-0.
 00000031,-0.11801265,-0.21395823,0.00000526,0.07958790,-0.18826778,0.0
 0001719,-0.00337353,-0.00626291,0.00000099,-0.00168608,0.00075131,-0.0
 0000016,-0.00185784,0.00076204,-0.00000075,0.03329472,-0.03803488,0.00
 000315,0.03162454,0.41969343,-0.00000001,-0.00000154,0.01515349,-0.000
 01037,0.00000437,-0.05597451,-0.00001492,0.00002634,-0.07687749,0.0000
 0022,-0.00000072,0.00463763,-0.00000008,0.00000005,0.00202333,-0.00000
 008,-0.00000019,-0.00154132,0.00000062,-0.00000118,0.01599276,0.000023
 68,-0.00002138,0.07789000,-0.28377512,-0.06338571,0.00000900,-0.021508
 51,-0.02127321,0.00000372,0.01939673,-0.00363811,-0.00000689,-0.000025
 33,-0.00089895,-0.00000009,-0.13005362,-0.14280328,0.00001092,-0.00307
 397,-0.00190316,0.00000073,0.00146514,0.00350844,0.00000072,-0.0196440
 5,0.00045432,-0.00000004,0.68592759,-0.03220856,-0.12899073,-0.0000027
 9,-0.02324945,-0.04595992,0.00000130,0.00369520,-0.00556563,0.00000116
 ,0.00104217,0.00124685,0.00000023,-0.14534498,-0.39536882,0.00001859,-
 0.00750790,0.00001542,-0.00000032,0.00675628,-0.00010079,0.00000031,-0
 .00529038,-0.00604518,-0.00000050,0.11367150,0.90944425,0.00000775,0.0
 0000086,-0.02342093,-0.00000035,-0.00000023,0.00819150,-0.00000172,0.0
 0000048,-0.00122219,-0.00000016,-0.00000026,0.00117538,0.00001109,0.00
 001481,0.00445096,0.00000059,0.00000064,0.00257860,0.00000007,0.000000
 44,0.00525696,0.00000238,-0.00000010,0.00421386,-0.00003067,-0.0000194
 2,0.04508651,-0.03768907,0.06039201,-0.00000277,-0.24717649,0.06139243
 ,-0.00000718,0.01282345,-0.00432565,0.00000361,0.00106237,-0.00042738,
 0.00000039,-0.00064483,0.00319040,0.00000043,-0.09814023,0.09859516,-0
 .00000366,-0.01155134,0.00181421,-0.00000096,-0.06021269,0.00453538,-0
 .00000244,0.01115912,-0.02422124,0.00000171,0.64907065,0.02590770,-0.0
 4657945,0.00000185,0.06635241,-0.18113314,0.00000543,-0.00543269,-0.00
 104846,0.00000085,0.00011698,0.00032985,0.00000012,0.00688584,-0.00149
 531,-0.00000013,0.10116501,-0.42857358,0.00001921,-0.00144039,-0.00028
 127,-0.00000006,-0.01984650,0.02646536,-0.00000355,0.00283601,-0.08936
 472,0.00000495,-0.10582428,0.93671711,0.00000516,-0.00000420,0.0146487
 4,-0.00000276,0.00001253,-0.04709971,0.00000348,-0.00000344,0.00514680
 ,0.00000002,0.00000008,-0.00021320,0.00000014,-0.00000017,0.00370228,-
 0.00000224,0.00002196,-0.00218767,0.00000126,0.00000265,-0.00034775,-0
 .00000471,-0.00000221,0.00030800,-0.00000193,0.00000238,0.01150089,0.0
 0000197,-0.00004461,0.06001842,-0.03264516,0.01202079,0.00000496,-0.07
 140928,-0.00748955,0.00000325,-0.01062703,-0.00558355,0.00000259,-0.00
 063495,0.00065077,-0.00000035,0.01949730,-0.00753872,-0.00000076,0.017
 90215,0.00365890,-0.00000165,0.00838284,0.00476795,0.00000159,0.009647
 58,0.00330976,0.00000043,-0.17298922,0.04140651,0.00000348,-0.15427168
 ,-0.03422365,0.00000023,0.93307599,0.05206208,-0.00520778,-0.00000038,
 -0.05289214,0.05130752,0.00000030,0.00710359,0.00058974,-0.00000472,-0
 .00083782,-0.00042208,-0.00000027,0.01153533,-0.01743982,-0.00000203,-
 0.01692146,-0.01350145,0.00000305,0.00397040,-0.00007689,0.00000017,0.
 00437057,-0.00497743,0.00000059,0.07555517,-0.26263816,-0.00000279,-0.
 04159480,-0.22612047,0.00001379,-0.05925311,0.59162039,0.00000106,0.00
 000052,0.00490918,0.00000212,-0.00000384,0.00189259,0.00000067,-0.0000
 0092,0.00186634,0.,0.00000001,-0.00001122,-0.00000179,0.00000194,-0.00
 497205,-0.00000167,-0.00000096,-0.00608422,0.00000046,0.00000072,0.000
 92223,-0.00000228,0.00000104,0.00008044,0.00000479,-0.00000130,-0.0653
 5233,0.00000573,0.00001555,-0.06559414,-0.00000701,-0.00001442,0.20647
 866,-0.02115593,0.01319218,-0.00000074,0.00798891,-0.00707440,0.000000
 79,0.00705751,0.00676924,-0.00000220,0.00033581,-0.00087034,0.00000021
 ,-0.00243839,-0.00440064,-0.00000029,-0.00132451,0.00345177,-0.0000002
 9,-0.00893637,-0.00489390,-0.00000157,-0.00673484,0.00124362,-0.000000
 88,-0.05005788,0.05764995,0.00000242,-0.07736579,-0.03585296,0.0000050
 2,-0.53617896,0.03813675,-0.00000141,0.68041937,-0.00277998,-0.0052015
 2,-0.00000017,0.00551171,-0.01180309,0.00000053,-0.00140374,-0.0011580
 1,0.00000093,0.00018215,0.00025723,0.00000005,-0.00110604,0.00300099,-
 0.00000022,0.00216644,0.00205830,-0.00000005,0.00064007,0.00018240,0.0
 0000008,-0.00170588,0.00156715,-0.00000017,0.05840677,0.00061303,-0.00
 000040,-0.04823570,0.01907140,0.00000019,0.04070106,-0.10381218,0.0000
 0133,-0.05491326,0.09156621,-0.00000084,0.00000015,0.00359910,-0.00000
 020,0.00000108,0.00289699,0.00000015,0.00000060,-0.00005211,0.00000003
 ,0.,-0.00013139,-0.00000016,-0.00000033,-0.00258432,-0.00000046,-0.000
 00020,-0.00175926,-0.00000038,-0.00000054,-0.00075533,0.00000046,-0.00
 000014,0.00084894,0.00000318,-0.00000048,0.01707570,0.00000497,-0.0000
 0048,0.01610602,-0.00000354,0.00000228,-0.07125654,-0.00000386,-0.0000
 0143,0.03389227,0.01088471,-0.01127910,-0.00000226,0.01960942,0.020417
 14,0.00000405,-0.39985940,-0.15320238,0.00008579,-0.00119654,0.0004409
 7,-0.00000149,-0.00028496,0.00152176,0.00000034,0.00023042,-0.00106727
 ,0.00000016,-0.01745859,-0.05565729,0.00000562,-0.12333055,-0.00250387
 ,0.00000702,-0.01516194,0.00008713,0.00000102,-0.00615375,-0.00098892,
 -0.00000166,0.00870134,-0.00661432,-0.00000045,-0.00796102,0.00125937,
 -0.00000015,0.53465229,-0.00135531,0.00370022,-0.00000073,0.00538852,-
 0.00354773,0.00000138,-0.14717752,-0.16901281,0.00004249,-0.00244473,0
 .00395797,-0.00000172,-0.00006288,0.00051418,0.00000014,-0.00000217,-0
 .00028121,0.00000001,-0.07602423,-0.07048716,0.00000447,0.00729223,0.0
 3018247,-0.00000192,-0.00525369,0.00180274,0.00000027,-0.00055164,0.00
 085593,0.00000019,0.00392627,-0.00350066,0.00000007,-0.00390417,0.0008
 8507,-0.00000019,0.20394860,0.20718216,-0.00000330,0.00000172,-0.00144
 108,-0.00000451,-0.00000049,0.00805683,0.00009258,0.00004765,-0.077927
 77,0.00000037,0.00000028,-0.00289655,0.00000007,-0.00000047,-0.0000830
 6,-0.00000005,0.00000019,0.00009330,0.00000160,0.00000235,0.01851553,0
 .00000798,-0.00000288,0.01510397,0.00000514,-0.00000050,-0.00028449,-0
 .00000026,-0.00000008,0.00006323,-0.00000263,0.00000304,-0.00022196,0.
 00000238,-0.00000062,-0.00011310,-0.00010173,-0.00004893,0.03563133,-0
 .25756606,0.05714092,0.00001932,0.03870862,0.08710312,0.00000374,0.047
 76333,-0.09764927,-0.00000775,-0.02303965,-0.01706786,-0.00000532,0.00
 108192,-0.00019393,0.00000031,0.00173387,0.00172640,-0.00000021,-0.235
 63943,-0.00236290,0.00000099,-0.07084391,0.00193861,-0.00000407,-0.027
 54696,0.01541151,0.00000199,0.02334840,-0.00283963,-0.00000478,-0.0230
 3175,-0.01734110,-0.00000048,0.01999850,0.00137311,0.00000109,-0.00283
 078,0.02067899,0.00000273,0.60825411,0.09201730,-0.12873025,-0.0000137
 5,0.02198748,-0.06961781,-0.00000441,-0.04708879,-0.02315113,-0.000002
 44,0.01191302,0.01676100,0.00000382,-0.00083838,0.00143294,0.00000029,
 0.00098254,-0.00146406,0.00000027,-0.04815997,-0.14703692,-0.00001478,
 0.02914044,0.02104581,0.00000039,-0.02036553,0.02221053,0.00000085,-0.
 01635602,-0.00802091,0.00000349,0.02072148,-0.00559735,0.00000038,-0.0
 2500949,0.00399692,-0.00000087,0.01728223,0.00719091,-0.00000335,-0.07
 977217,0.80839045,0.00001207,-0.00001995,-0.05242210,0.00000292,0.0000
 0718,-0.00698764,-0.00000067,-0.00001205,-0.01326702,0.00000016,0.0000
 0202,-0.00144885,0.00000019,-0.00000037,0.00070057,-0.00000015,0.00000
 031,0.00211515,-0.00000764,-0.00001057,-0.04858006,-0.00000528,-0.0000
 0113,-0.00007471,0.00000373,0.00000093,-0.00696340,-0.00000115,0.00000
 158,0.00570879,-0.00000269,0.00000243,-0.00308385,0.00000253,-0.000000
 38,0.00231955,0.00000369,0.00000557,0.00632048,-0.00000756,0.00000639,
 0.18681826,0.00532214,0.05296905,-0.00000247,-0.01150078,-0.01342012,-
 0.00000065,-0.01049472,0.01531882,0.00000160,0.00453819,0.00261828,-0.
 00000001,0.00058758,-0.00030990,0.00000008,-0.00067704,-0.00040605,0.0
 0000007,0.01020162,-0.06408806,-0.00000373,0.01205096,-0.00031901,0.00
 000092,0.00588802,-0.00189775,0.00000041,-0.00425813,0.00318508,0.0000
 0081,0.00458083,0.00272086,0.00000026,-0.00364642,-0.00009608,-0.00000
 028,0.00015935,-0.00445827,-0.00000036,-0.10039020,0.04354586,-0.00000
 016,0.08763861,0.03212653,-0.09099749,0.00000229,0.01065380,0.04409351
 ,0.00000197,0.01608774,0.01078105,0.00000296,0.00263033,0.00016943,-0.
 00000099,0.00143094,-0.00127123,-0.00000010,0.00061289,0.00137062,-0.0
 0000030,-0.03851534,-0.08000615,-0.00000542,-0.02398165,-0.01671710,-0
 .00000060,0.00508946,-0.00129887,-0.00000013,0.01161712,-0.00082232,-0
 .00000262,-0.01707491,-0.00022338,-0.00000011,0.01647565,-0.00122390,0
 .00000056,-0.01364405,-0.00944207,0.00000209,0.03185420,-0.49741013,0.
 00001804,-0.03536270,0.64299801,0.00000051,0.00000361,0.02017353,-0.00
 000056,-0.00000519,0.00772637,-0.00000297,0.00000320,0.00669065,0.0000
 0059,0.00000071,-0.00361036,-0.00000004,0.00000032,-0.00052748,0.00000
 007,-0.00000019,-0.00064927,-0.00000245,-0.00000792,0.01483574,0.00000
 401,0.00000142,-0.00178440,-0.00000229,0.00000044,-0.00228703,-0.00000
 039,-0.00000065,-0.00176069,0.00000210,-0.00000105,0.00042686,-0.00000
 210,0.00000032,-0.00008652,0.00000005,-0.00000110,-0.00081666,0.,0.000
 02373,-0.07115517,0.00000349,-0.00001766,0.03282443\\-0.00004667,0.000
 20051,-0.00000742,-0.00002994,-0.00020189,-0.00000448,-0.00028900,0.00
 028119,-0.00009551,0.00002276,0.00004031,-0.00000002,0.00000261,-0.000
 00898,0.00000066,-0.00002315,-0.00001989,0.00000305,-0.00000624,-0.000
 20159,0.00000971,0.00014282,-0.00000847,0.00002942,0.00008055,-0.00004
 461,0.00000321,0.00003561,-0.00006287,0.00001137,-0.00004594,0.0000274
 1,-0.00002608,0.00001027,-0.00004873,0.00000783,0.00006726,-0.00002203
 ,0.00003612,0.00006420,0.00002467,0.00005028,0.00001485,0.00004496,-0.
 00001814\\\@


 THE UNDERLYING PHYSICAL LAWS NECESSARY FOR THE 
 MATHEMATICAL THEORY OF A LARGE PART OF PHYSICS AND THE
 WHOLE OF CHEMISTRY ARE THUS COMPLETELY KNOWN, AND THE
 DIFFICULTY IS ONLY THAT THE EXACT APPLICATION OF THESE
 LAWS LEADS TO EQUATIONS MUCH TOO COMPLICATED 
 TO BE SOLUBLE.

                                        -- P. A. M. DIRAC, 1929
 Job cpu time:       0 days  0 hours 39 minutes 46.5 seconds.
 File lengths (MBytes):  RWF=    158 Int=      0 D2E=      0 Chk=     11 Scr=      1
 Normal termination of Gaussian 09 at Mon May  3 12:09:58 2021.
